# vtk DataFile Version 4.0
Nusif Fluid VTK output
ASCII
DATASET STRUCTURED_POINTS
DIMENSIONS 50 20 1
ORIGIN 0 0 0 
SPACING 0.2 0.2 1
POINT_DATA 1000 

VECTORS velocity double
0.0367009 -0.0344721  0
0.109057 -0.0340595  0
0.179372 -0.0331277  0
0.248078 -0.0325694  0
0.315416 -0.0318455  0
0.38181 -0.0316643  0
0.447659 -0.0313358  0
0.513323 -0.0314978  0
0.579226 -0.0314698  0
0.644767 -0.031056  0
0.709403 -0.0308374  0
0.773577 -0.0304845  0
0.837158 -0.0304  0
0.90015 -0.0300738  0
0.963477 -0.0305015  0
1.02832 -0.0317746  0
1.09654 -0.0339326  0
1.16816 -0.0351484  0
1.23632 -0.0305155  0
1.29531 -0.0259609  0
1.34738 -0.0236132  0
1.39742 -0.0239244  0
1.44691 -0.0230573  0
1.49618 -0.0237298  0
1.5441 -0.0216782  0
1.59129 -0.0230324  0
1.6378 -0.0209634  0
1.6851 -0.0238468  0
1.73267 -0.0212145  0
1.78094 -0.024562  0
1.82876 -0.0207622  0
1.87581 -0.0237824  0
1.92188 -0.0198015  0
1.96618 -0.0219876  0
2.01012 -0.019466  0
2.05249 -0.0203966  0
2.09532 -0.0199338  0
2.13691 -0.0191609  0
2.17844 -0.0198909  0
2.2185 -0.017695  0
2.25729 -0.0185962  0
2.29489 -0.0165409  0
2.33231 -0.0183807  0
2.37309 -0.0199116  0
2.42187 -0.0263919  0
2.48225 -0.0315101  0
2.54188 -0.0256313  0
2.57197 -0.00197413  0
2.56966 0.00676397  0
2.56414 0.00411256  0
0.0368507 -0.104325  0
0.109609 -0.102914  0
0.179502 -0.0991064  0
0.247271 -0.0977167  0
0.313535 -0.0949707  0
0.378657 -0.0947861  0
0.443482 -0.0936084  0
0.508056 -0.0942063  0
0.573072 -0.0942117  0
0.637495 -0.0929477  0
0.70087 -0.0917836  0
0.763362 -0.0910141  0
0.825328 -0.0903304  0
0.886905 -0.0896043  0
0.948412 -0.0907854  0
1.01168 -0.0945943  0
1.0797 -0.102316  0
1.15391 -0.10765  0
1.22201 -0.0892754  0
1.27707 -0.0762864  0
1.32657 -0.0698778  0
1.37591 -0.0720711  0
1.42637 -0.0698824  0
1.47713 -0.0719413  0
1.52694 -0.0662473  0
1.5762 -0.0699074  0
1.62453 -0.063986  0
1.67301 -0.0715895  0
1.72118 -0.0642629  0
1.76958 -0.0731903  0
1.81749 -0.0628966  0
1.86475 -0.0709795  0
1.91113 -0.0600751  0
1.95598 -0.0658914  0
2.00022 -0.0587591  0
2.04287 -0.061149  0
2.08547 -0.0596217  0
2.12677 -0.0574041  0
2.16782 -0.0592621  0
2.20747 -0.0530769  0
2.24609 -0.0556501  0
2.28356 -0.0495949  0
2.32022 -0.0544386  0
2.35807 -0.0575078  0
2.39943 -0.0739774  0
2.44874 -0.0886508  0
2.50461 -0.0790182  0
2.54052 -0.0108614  0
2.54633 0.0146351  0
2.54522 0.00822512  0
0.0372994 -0.175751  0
0.111255 -0.173214  0
0.180082 -0.162965  0
0.244879 -0.161766  0
0.309058 -0.156607  0
0.372163 -0.156599  0
0.434877 -0.154511  0
0.497449 -0.155575  0
0.560329 -0.155781  0
0.62276 -0.153589  0
0.684286 -0.151206  0
0.744969 -0.149965  0
0.804974 -0.14856  0
0.864443 -0.14744  0
0.923693 -0.148945  0
0.983636 -0.154762  0
1.04756 -0.16912  0
1.12043 -0.183016  0
1.18016 -0.138029  0
1.24005 -0.140036  0
1.29049 -0.103582  0
1.34918 -0.143937  0
1.39736 -0.0941802  0
1.45821 -0.156743  0
1.50311 -0.0737247  0
1.56411 -0.170162  0
1.60559 -0.051108  0
1.66539 -0.190225  0
1.70494 -0.0309105  0
1.75987 -0.207369  0
1.80374 -0.0180252  0
1.84726 -0.20416  0
1.9025 -0.0260168  0
1.93222 -0.17206  0
1.99717 -0.0592839  0
2.01869 -0.122332  0
2.08287 -0.102723  0
2.1061 -0.076373  0
2.15896 -0.131713  0
2.19132 -0.0501545  0
2.23051 -0.133904  0
2.27164 -0.0474455  0
2.30234 -0.121479  0
2.34495 -0.068439  0
2.36891 -0.125885  0
2.40061 -0.115262  0
2.40159 -0.106774  0
2.45775 -0.0622743  0
2.53333 0.00787115  0
2.55133 0.00411256  0
0.039519 -0.251316  0
0.108613 -0.238295  0
0.17555 -0.231335  0
0.241641 -0.221967  0
0.300545 -0.217138  0
0.362552 -0.218787  0
0.425648 -0.21574  0
0.486183 -0.215006  0
0.545776 -0.216399  0
0.607097 -0.214394  0
0.667255 -0.209677  0
0.726184 -0.208643  0
0.786834 -0.208137  0
0.844089 -0.202195  0
0.902385 -0.209241  0
0.955615 -0.205196  0
1.00253 -0.227082  0
1.02814 -0.22103  0
1.12485 -0.189784  0
1.2181 -0.0897103  0
1.29657 -0.0573176  0
1.33922 -0.0957901  0
1.4101 -0.047355  0
1.44001 -0.108532  0
1.51787 -0.0291556  0
1.54304 -0.123287  0
1.62478 -0.00808533  0
1.64517 -0.142483  0
1.7212 0.0121379  0
1.7479 -0.15874  0
1.80196 0.0241092  0
1.85711 -0.156963  0
1.87369 0.0142568  0
1.96647 -0.128157  0
1.95059 -0.0199907  0
2.06174 -0.0815801  0
2.03942 -0.0630355  0
2.13541 -0.0381298  0
2.1356 -0.0923417  0
2.19583 -0.0147725  0
2.23013 -0.0968499  0
2.26021 -0.0143915  0
2.31879 -0.0854215  0
2.33783 -0.0308428  0
2.39619 -0.0782999  0
2.3757 -0.0581215  0
2.39686 -0.053387  0
1.2008 -0.053387  0
0 0  0
0 0  0
0.0280367 -0.145417  0
0.097544 -0.133935  0
0.166963 -0.134348  0
0.230949 -0.125348  0
0.300506 -0.123656  0
0.362397 -0.12531  0
0.422477 -0.123501  0
0.486042 -0.122139  0
0.546335 -0.12336  0
0.603155 -0.122697  0
0.663765 -0.119417  0
0.726275 -0.119207  0
0.781913 -0.119508  0
0.845162 -0.114286  0
0.901352 -0.12058  0
0.96138 -0.113253  0
0.999795 -0.126345  0
1.01231 -0.110515  0
0.514071 -0.110515  0
0 0  0
0 0  0
0 0  0
0 0  0
0 0  0
0 0  0
0 0  0
0 0  0
0 0  0
0 0  0
0 0  0
0 0  0
0 0  0
0 0  0
0 0  0
0 0  0
0 0  0
0 0  0
0 0  0
0 0  0
0 0  0
0 0  0
0 0  0
0 0  0
0 0  0
0 0  0
0 0  0
0 0  0
0 0  0
0 0  0
0 0  0
0 0  0
0 0  0
0 0  0
0 0  0
0 0  0
0 0  0
0 0  0
0 0  0
0 0  0
0 0  0
0 0  0
0 0  0
0 0  0
0 0  0
0 0  0
0 0  0
0 0  0
0 0  0
0 0  0
0 0  0
0 0  0
0 0  0
0 0  0
0 0  0
0 0  0
0 0  0
0 0  0
0 0  0
0 0  0
0 0  0
0 0  0
0 0  0
0 0  0
0 0  0
0 0  0
0 0  0
0 0  0
0 0  0
0 0  0
0 0  0
0 0  0
0 0  0
0 0  0
0 0  0
0 0  0
0 0  0
0 0  0
0 0  0
0 0  0
0 0  0
0 0  0
0 0  0
0 0  0
0 0  0
0 0  0
0 0  0
0 0  0
0 0  0
0 0  0
0 0  0
0 0  0
0 0  0
0 0  0
0 0  0
0 0  0
0 0  0
0 0  0
0 0  0
0 0  0
0 0  0
0 0  0
0 0  0
0 0  0
0 0  0
0 0  0
0 0  0
0 0  0
0 0  0
0 0  0
0 0  0
0 0  0
0 0  0
0 0  0
0 0  0
0 0  0
0 0  0
0 0  0
0 0  0
0 0  0
0 0  0
0 0  0
0 0  0
0 0  0
0 0  0
0 0  0
0 0  0
0 0  0
0 0  0
0 0  0
0 0  0
0 0  0
0 0  0
0 0  0
0 0  0
0 0  0
0 0  0
0 0  0
0 0  0
0 0  0
0 0  0
0 0  0
0 0  0
0 0  0
0 0  0
0 0  0
0 0  0
0 0  0
0 0  0
0 0  0
0 0  0
0 0  0
0 0  0
0 0  0
0 0  0
0 0  0
0 0  0
0 0  0
0 0  0
0 0  0
0 0  0
0 0  0
0 0  0
0 0  0
0 0  0
0 0  0
0 0  0
0 0  0
0 0  0
0 0  0
0 0  0
0 0  0
0 0  0
0 0  0
0 0  0
0 0  0
0 0  0
0 0  0
0 0  0
0 0  0
0 0  0
0 0  0
0 0  0
0 0  0
0 0  0
0 0  0
0 0  0
0 0  0
0 0  0
0 0  0
0 0  0
0 0  0
0 0  0
0 0  0
0 0  0
0 0  0
0 0  0
0 0  0
0 0  0
0 0  0
0 0  0
0 0  0
0 0  0
0 0  0
0 0  0
0 0  0
0 0  0
0 0  0
0 0  0
0 0  0
0 0  0
0 0  0
0 0  0
0 0  0
0 0  0
0 0  0
0 0  0
0 0  0
0 0  0
0 0  0
0 0  0
0 0  0
0 0  0
0 0  0
0 0  0
0 0  0
0 0  0
0 0  0
0 0  0
0 0  0
0 0  0
0 0  0
0 0  0
0 0  0
0 0  0
0 0  0
0 0  0
0 0  0
0 0  0
0 0  0
0 0  0
0 0  0
0 0  0
0 0  0
0 0  0
0 0  0
0 0  0
0 0  0
0 0  0
0 0  0
0 0  0
0 0  0
0 0  0
0 0  0
0 0  0
0 0  0
0 0  0
0 0  0
0 0  0
0 0  0
0 0  0
0 0  0
0 0  0
0 0  0
0 0  0
0 0  0
0 0  0
0 0  0
0 0  0
0 0  0
0 0  0
0 0  0
0 0  0
0 0  0
0 0  0
0 0  0
0 0  0
0 0  0
0 0  0
0 0  0
0 0  0
0 0  0
0 0  0
0 0  0
0 0  0
0 0  0
0 0  0
0 0  0
0 0  0
0 0  0
0 0  0
0 0  0
0 0  0
0 0  0
0 0  0
0 0  0
0 0  0
0 0  0
0 0  0
0 0  0
0 0  0
0 0  0
0 0  0
0 0  0
0 0  0
0 0  0
0 0  0
0 0  0
0 0  0
0 0  0
0 0  0
0 0  0
0 0  0
0 0  0
0 0  0
0 0  0
0 0  0
0 0  0
0 0  0
0 0  0
0 0  0
0 0  0
0 0  0
0 0  0
0 0  0
0 0  0
0 0  0
0 0  0
0 0  0
0 0  0
0 0  0
0 0  0
0 0  0
0 0  0
0 0  0
0 0  0
0 0  0
0 0  0
0 0  0
0 0  0
0 0  0
0 0  0
0 0  0
0 0  0
0 0  0
0 0  0
0 0  0
0 0  0
0 0  0
0 0  0
0 0  0
0 0  0
0 0  0
0 0  0
0 0  0
0 0  0
0 0  0
0 0  0
0 0  0
0 0  0
0 0  0
0 0  0
0 0  0
0 0  0
0 0  0
0 0  0
0 0  0
0 0  0
0 0  0
0 0  0
0 0  0
0 0  0
0 0  0
0 0  0
0 0  0
0 0  0
0 0  0
0 0  0
0 0  0
0 0  0
0 0  0
0 0  0
0 0  0
0 0  0
0 0  0
0 0  0
0 0  0
0 0  0
0 0  0
0 0  0
0 0  0
0 0  0
0 0  0
0 0  0
0 0  0
0 0  0
0 0  0
0 0  0
0 0  0
0 0  0
0 0  0
0 0  0
0 0  0
0 0  0
0 0  0
0 0  0
0 0  0
0 0  0
0 0  0
0 0  0
0 0  0
0 0  0
0 0  0
0 0  0
0 0  0
0 0  0
0 0  0
0 0  0
0 0  0
0 0  0
0 0  0
0 0  0
0 0  0
0 0  0
0 0  0
0 0  0
0 0  0
0 0  0
0 0  0
0 0  0
0 0  0
0 0  0
0 0  0
0 0  0
0 0  0
0 0  0
0 0  0
0 0  0
0 0  0
0 0  0
0 0  0
0 0  0
0 0  0
0 0  0
0 0  0
0 0  0
0 0  0
0 0  0
0 0  0
0 0  0
0 0  0
0 0  0
0 0  0
0 0  0
0 0  0
0 0  0
0 0  0
0 0  0
0 0  0
0 0  0
0 0  0
0 0  0
0 0  0
0 0  0
0 0  0
0 0  0
0 0  0
0 0  0
0 0  0
0 0  0
0 0  0
0 0  0
0 0  0
0 0  0
0 0  0
0 0  0
0 0  0
0 0  0
0 0  0
0 0  0
0 0  0
0 0  0
0 0  0
0 0  0
0 0  0
0 0  0
0 0  0
0 0  0
0 0  0
0 0  0
0 0  0
0 0  0
0 0  0
0 0  0
0 0  0
0 0  0
0 0  0
0 0  0
0 0  0
0 0  0
0 0  0
0 0  0
0 0  0
0 0  0
0 0  0
0 0  0
0 0  0
0 0  0
0 0  0
0 0  0
0 0  0
0 0  0
0 0  0
0 0  0
0 0  0
0 0  0
0 0  0
0 0  0
0 0  0
0 0  0
0 0  0
0 0  0
0 0  0
0 0  0
0 0  0
0 0  0
0 0  0
0 0  0
0 0  0
0 0  0
0 0  0
0 0  0
0 0  0
0 0  0
0 0  0
0 0  0
0 0  0
0 0  0
0 0  0
0 0  0
0 0  0
0 0  0
0 0  0
0 0  0
0 0  0
0 0  0
0 0  0
0 0  0
0 0  0
0 0  0
0 0  0
0 0  0
0 0  0
0 0  0
0 0  0
0 0  0
0 0  0
0 0  0
0 0  0
0 0  0
0 0  0
0 0  0
0 0  0
0 0  0
0 0  0
0 0  0
0 0  0
0 0  0
0 0  0
0 0  0
0 0  0
0 0  0
0 0  0
0 0  0
0 0  0
0 0  0
0 0  0
0 0  0
0 0  0
0 0  0
0 0  0
0 0  0
0 0  0
0 0  0
0 0  0
0 0  0
0 0  0
0 0  0
0 0  0
0 0  0
0 0  0
0 0  0
0 0  0
0 0  0
0 0  0
0 0  0
0 0  0
0 0  0
0 0  0
0 0  0
0 0  0
0 0  0
0 0  0
0 0  0
0 0  0
0 0  0
0 0  0
0 0  0
0 0  0
0 0  0
0 0  0
0 0  0
0 0  0
0 0  0
0 0  0
0 0  0
0 0  0
0 0  0
0 0  0
0 0  0
0 0  0
0 0  0
0 0  0
0 0  0
0 0  0
0 0  0
0 0  0
0 0  0
0 0  0
0 0  0
0 0  0
0 0  0
0 0  0
0 0  0
0 0  0
0 0  0
0 0  0
0 0  0
0 0  0
0 0  0
0 0  0
0 0  0
0 0  0
0 0  0
0 0  0
0 0  0
0 0  0
0 0  0
0 0  0
0 0  0
0 0  0
0 0  0
0 0  0
0 0  0
0 0  0
0 0  0
0 0  0
0 0  0
0 0  0
0 0  0
0 0  0
0 0  0
0 0  0
0 0  0
0 0  0
0 0  0
0 0  0
0 0  0
0 0  0
0 0  0
0 0  0
0 0  0
0 0  0
0 0  0
0 0  0
0 0  0
0 0  0
0 0  0
0 0  0
0 0  0
0 0  0
0 0  0
0 0  0
0 0  0
0 0  0
0 0  0
0 0  0
0 0  0
0 0  0
0 0  0
0 0  0
0 0  0
0 0  0
0 0  0
0 0  0
0 0  0
0 0  0
0 0  0
0 0  0
0 0  0
0 0  0
0 0  0
0 0  0
0 0  0
0 0  0
0 0  0
0 0  0
0 0  0
0 0  0
0 0  0
0 0  0
0 0  0
0 0  0
0 0  0
0 0  0
0 0  0
0 0  0
0 0  0
0 0  0
0 0  0
0 0  0
0 0  0
0 0  0
0 0  0
0 0  0
0 0  0
0 0  0
0 0  0
0 0  0
0 0  0
0 0  0
0 0  0
0 0  0
0 0  0
0 0  0
0 0  0
0 0  0
0 0  0
0 0  0
0 0  0
0 0  0
0 0  0
0 0  0
0 0  0
0 0  0
0 0  0
0 0  0
0 0  0
0 0  0
0 0  0
0 0  0
0 0  0
0 0  0
0 0  0
0 0  0
0 0  0
0 0  0
0 0  0
0 0  0
0 0  0
0 0  0
0 0  0
0 0  0
0 0  0
0 0  0
0 0  0
0 0  0
0 0  0
0 0  0
0 0  0
0 0  0
0 0  0
0 0  0
0 0  0
0 0  0
0 0  0
0 0  0
0 0  0
0 0  0
0 0  0
0 0  0

SCALARS pressure double 1
LOOKUP_TABLE default
0.616815
0.61488
0.613895
0.612501
0.610958
0.610059
0.609331
0.608609
0.6079
0.605753
0.601548
0.597804
0.59076
0.582771
0.570114
0.551783
0.524174
0.484525
0.439501
0.410159
0.390206
0.382539
0.374674
0.376295
0.371297
0.37771
0.372572
0.382287
0.375009
0.386237
0.37592
0.385855
0.375175
0.381505
0.375253
0.377358
0.377739
0.375798
0.379885
0.375328
0.380075
0.37492
0.376999
0.370867
0.362752
0.338131
0.294434
0.238945
0.21619
0.192195
0.398554
0.397617
0.39873
0.398054
0.396424
0.396107
0.39585
0.394877
0.394453
0.392038
0.389546
0.385837
0.3819
0.37444
0.365504
0.34882
0.323146
0.276528
0.212927
0.192104
0.170639
0.175134
0.158068
0.176055
0.153019
0.183211
0.150589
0.193274
0.149015
0.201717
0.148503
0.200559
0.151787
0.188348
0.161169
0.173428
0.174493
0.16376
0.183908
0.161295
0.18493
0.163517
0.180499
0.166115
0.1707
0.148076
0.102379
0.0038039
0.00672453
0
0.168168
0.167277
0.175742
0.174036
0.170563
0.172655
0.173132
0.171426
0.171511
0.171024
0.168583
0.167403
0.16621
0.160843
0.15844
0.146866
0.131676
0.0739016
-0.0688333
-0.0298721
-0.0863955
-0.0157371
-0.106815
0.0112675
-0.133078
0.0442382
-0.163915
0.0810731
-0.195112
0.110313
-0.207073
0.104213
-0.174754
0.0512832
-0.102098
-0.0253803
-0.0230795
-0.0870961
0.0247501
-0.108876
0.0297729
-0.09548
0.010094
-0.0650081
-0.0016217
-0.0254548
-0.0300682
0
0
0
-0.0743726
-0.086924
-0.0476876
-0.0587054
-0.0719824
-0.0597759
-0.0577514
-0.0651445
-0.0613379
-0.0574274
-0.0638975
-0.0606571
-0.0554162
-0.0648178
-0.0495645
-0.0615119
-0.0291759
-0.0531489
0
0
0
0
0
0
0
0
0
0
0
0
0
0
0
0
0
0
0
0
0
0
0
0
0
0
0
0
0
0
0
0
0
0
0
0
0
0
0
0
0
0
0
0
0
0
0
0
0
0
0
0
0
0
0
0
0
0
0
0
0
0
0
0
0
0
0
0
0
0
0
0
0
0
0
0
0
0
0
0
0
0
0
0
0
0
0
0
0
0
0
0
0
0
0
0
0
0
0
0
0
0
0
0
0
0
0
0
0
0
0
0
0
0
0
0
0
0
0
0
0
0
0
0
0
0
0
0
0
0
0
0
0
0
0
0
0
0
0
0
0
0
0
0
0
0
0
0
0
0
0
0
0
0
0
0
0
0
0
0
0
0
0
0
0
0
0
0
0
0
0
0
0
0
0
0
0
0
0
0
0
0
0
0
0
0
0
0
0
0
0
0
0
0
0
0
0
0
0
0
0
0
0
0
0
0
0
0
0
0
0
0
0
0
0
0
0
0
0
0
0
0
0
0
0
0
0
0
0
0
0
0
0
0
0
0
0
0
0
0
0
0
0
0
0
0
0
0
0
0
0
0
0
0
0
0
0
0
0
0
0
0
0
0
0
0
0
0
0
0
0
0
0
0
0
0
0
0
0
0
0
0
0
0
0
0
0
0
0
0
0
0
0
0
0
0
0
0
0
0
0
0
0
0
0
0
0
0
0
0
0
0
0
0
0
0
0
0
0
0
0
0
0
0
0
0
0
0
0
0
0
0
0
0
0
0
0
0
0
0
0
0
0
0
0
0
0
0
0
0
0
0
0
0
0
0
0
0
0
0
0
0
0
0
0
0
0
0
0
0
0
0
0
0
0
0
0
0
0
0
0
0
0
0
0
0
0
0
0
0
0
0
0
0
0
0
0
0
0
0
0
0
0
0
0
0
0
0
0
0
0
0
0
0
0
0
0
0
0
0
0
0
0
0
0
0
0
0
0
0
0
0
0
0
0
0
0
0
0
0
0
0
0
0
0
0
0
0
0
0
0
0
0
0
0
0
0
0
0
0
0
0
0
0
0
0
0
0
0
0
0
0
0
0
0
0
0
0
0
0
0
0
0
0
0
0
0
0
0
0
0
0
0
0
0
0
0
0
0
0
0
0
0
0
0
0
0
0
0
0
0
0
0
0
0
0
0
0
0
0
0
0
0
0
0
0
0
0
0
0
0
0
0
0
0
0
0
0
0
0
0
0
0
0
0
0
0
0
0
0
0
0
0
0
0
0
0
0
0
0
0
0
0
0
0
0
0
0
0
0
0
0
0
0
0
0
0
0
0
0
0
0
0
0
0
0
0
0
0
0
0
0
0
0
0
0
0
0
0
0
0
0
0
0
0
0
0
0
0
0
0
0
0
0
0
0
0
0
0
0
0
0
0
0
0
0
0
0
0
0
0
0
0
0
0
0
0
0
0
0
0
0
0
0
0
0
0
0
0
0
0
0
0
0
0
0
0
0
0
0
0
0
0
0
0
0
0
0
0
0
0
0
0
0
0
0
0
0
0
0
0
0
0
0
0
0
0
0
0
0
0
0
0
0
0
0
0
0
0
0
0
0
0
0
0
0
0
0
0
0
0
0
0
0
0
0
0
0
0
0
0
0
0
0
0
0
0
0
0
0
0
0
0
0
0
0
0
0
0
0
0
0
0
0
0
0
0
0
0
0
0
0
0
0
0
0
0
0
0
0
0
0
0
0
0
0
0
0
0
0
0
0
0
0
0
0
0
0
0
0
0
0
0
0
0
0
0
0
0
0
0
0
0
0
0
0
0
0
0
0
0
0
0
0
0
0
0
0
0
0
0
0
0
0
0
0
0
0
0
0
0
0
0
0
0
0
0
0
0
0
0
0
SCALARS rhs double 1
LOOKUP_TABLE default
-5.25817
-5.31928
-5.31675
-5.30621
-5.29615
-5.29542
-5.29484
-5.2983
-5.30388
-5.32981
-5.28823
-5.28989
-5.28352
-5.27798
-5.23728
-5.30419
-5.32315
-5.32372
-5.27836
-5.20435
-5.18986
-5.17754
-5.18557
-5.1635
-5.1725
-5.15123
-5.17074
-5.15683
-5.17535
-5.15973
-5.16898
-5.15192
-5.15429
-5.14238
-5.142
-5.13783
-5.13899
-5.1476
-5.12052
-5.11366
-5.12838
-5.10526
-5.11535
-5.16969
-5.21408
-5.228
-5.09619
-5.06016
-5.26767
-4.20498
-0.269494
-0.308072
-0.266816
-0.272743
-0.259926
-0.251182
-0.246861
-0.24538
-0.258792
-0.254741
-0.197394
-0.26112
-0.188341
-0.212361
-0.265301
-0.20054
-0.274069
-0.319215
-0.275288
-0.15751
-0.244754
-0.172305
-0.287811
-0.176483
-0.338128
-0.198013
-0.428149
-0.245855
-0.546366
-0.299423
-0.59531
-0.276827
-0.46305
-0.179448
-0.252352
-0.147903
-0.15566
-0.201265
-0.144058
-0.252792
-0.122273
-0.230931
-0.133421
-0.18366
-0.186919
-0.164074
0.168254
2.03173
2.72561
1.30504
-0.323161
-0.385548
-0.284817
-0.284215
-0.28928
-0.276473
-0.269602
-0.28152
-0.278559
-0.256979
-0.253293
-0.249197
-0.265275
-0.238041
-0.239623
-0.274298
-0.28554
-0.243507
-0.750747
1.83146
2.12732
4.59302
3.99052
3.89297
4.60296
7.91439
7.93601
7.77873
15.9431
16.1286
15.0851
13.6843
11.7559
9.67694
10.0266
11.1087
11.0943
9.11019
5.15652
5.12678
4.91587
3.21898
1.92583
2.85373
1.61625
-0.332336
0.326847
0.786108
0
0
-1.04757
-1.02539
-0.95081
-0.890001
-0.758697
-0.666327
0.445555
0.445293
1.36025
2.89302
2.53791
1.33813
4.4693
4.12823
9.23283
11.4139
13.1261
15.9873
35.7955
28.0565
20.5298
16.247
13.5584
10.8402
10.7865
8.4957
6.05141
2.40646
0
0
0
0
0
0
0
0
0
0
0
0
0
0
0
0
0
0
0
0
0
0
5.36272
5.33529
5.71969
5.67828
4.75936
4.29628
3.76069
4.49375
4.93377
7.83712
7.96544
8.66736
9.26158
8.97228
43.8307
32.8547
19.5017
9.00999
0
0
0
0
0
0
0
0
0
0
0
0
0
0
0
0
0
0
0
0
0
0
0
0
0
0
0
0
0
0
0
0
6.36602
6.31525
5.9657
5.40632
4.81609
4.65051
4.54086
5.49725
6.68708
4.04255
4.68643
4.81997
12.4974
35.3186
0
0
0
0
0
0
0
0
0
0
0
0
0
0
0
0
0
0
0
0
0
0
0
0
0
0
0
0
0
0
0
0
0
0
0
0
1.47614
1.54411
2.09799
2.47435
3.77929
5.12603
6.33856
5.10183
2.09579
1.47098
2.53607
14.3387
26.3021
0
0
0
0
0
0
0
0
0
0
0
0
0
0
0
0
0
0
0
0
0
0
0
0
0
0
0
0
0
0
0
0
0
0
0
0
0
2.59543
2.54951
1.62039
1.22694
0.49828
0.777197
0.916648
3.70181
7.89906
8.9678
11.6117
27.2717
0
0
0
0
0
0
0
0
0
0
0
0
0
0
0
0
0
0
0
0
0
0
0
0
0
0
0
0
0
0
0
0
0
0
0
0
0
0
2.45787
2.59584
4.01582
4.53242
6.43299
7.47839
9.23983
7.89527
5.98596
8.49533
41.2731
0
0
0
0
0
0
0
0
0
0
0
0
0
0
0
0
0
0
0
0
0
0
0
0
0
0
0
0
0
0
0
0
0
0
0
0
0
0
0
9.36633
9.33066
8.04142
9.25902
7.69325
7.78758
9.09454
10.208
11.1703
21.7759
3.2041
0
0
0
0
0
0
0
0
0
0
0
0
0
0
0
0
0
0
0
0
0
0
0
0
0
0
0
0
0
0
0
0
0
0
0
0
0
0
0
7.92952
10.0992
10.1145
8.86149
11.2589
12.4355
10.8064
8.57914
8.60392
43.2779
0
0
0
0
0
0
0
0
0
0
0
0
0
0
0
0
0
0
0
0
0
0
0
0
0
0
0
0
0
0
0
0
0
0
0
0
0
0
0
0
13.2058
10.8439
11.0393
13.0106
10.7272
10.2862
9.48307
9.57063
8.67562
33.2233
0
0
0
0
0
0
0
0
0
0
0
0
0
0
0
0
0
0
0
0
0
0
0
0
0
0
0
0
0
0
0
0
0
0
0
0
0
0
0
0
8.71388
9.82855
9.83715
7.65861
8.9401
7.02241
6.34758
6.44313
5.90605
26.1906
0
0
0
0
0
0
0
0
0
0
0
0
0
0
0
0
0
0
0
0
0
0
0
0
0
0
0
0
0
0
0
0
0
0
0
0
0
0
0
0
7.061
5.55892
5.71513
6.83869
5.56628
5.6724
5.42452
5.43401
4.26976
17.1298
0
0
0
0
0
0
0
0
0
0
0
0
0
0
0
0
0
0
0
0
0
0
0
0
0
0
0
0
0
0
0
0
0
0
0
0
0
0
0
0
6.55202
6.55536
6.55982
5.31204
5.40986
6.30896
5.08555
5.09432
5.2091
10.3371
0
0
0
0
0
0
0
0
0
0
0
0
0
0
0
0
0
0
0
0
0
0
0
0
0
0
0
0
0
0
0
0
0
0
0
0
0
0
0
0
5.52783
5.53996
5.54196
5.54121
5.54439
4.52522
5.16545
5.22779
16.4546
0
0
0
0
0
0
0
0
0
0
0
0
0
0
0
0
0
0
0
0
0
0
0
0
0
0
0
0
0
0
0
0
0
0
0
0
0
0
0
0
0
3.60674
3.66202
3.98033
3.98143
3.98244
3.98396
3.23505
3.31189
11.5415
0
0
0
0
0
0
0
0
0
0
0
0
0
0
0
0
0
0
0
0
0
0
0
0
0
0
0
0
0
0
0
0
0
0
0
0
0
0
0
0
0
6.01719
6.36025
5.75447
5.75462
5.75506
5.75536
5.75588
5.76119
8.30564
0
0
0
0
0
0
0
0
0
0
0
0
0
0
0
0
0
0
0
0
0
0
0
0
0
0
0
0
0
0
0
0
0
0
0
0
0
0
0
0
0
3.29611
2.74112
2.74112
2.74112
2.74112
2.74112
2.74112
2.74112
2.74112
0
0
0
0
0
0
0
0
0
0
0
0
0
0
0
0
0
0
0
0
0
0
0
0
0
0
0
0
0
0
0
0
0
0
0
0
0
0
0
0
0
0
0
0
0
0
0
0
0
0
0
0
0
0
0
0
0
0
0
0
0
0
0
0
0
0
0
0
0
0
0
0
0
0
0
0
0
0
0
0
0
0
0
0
0
0
0
0
0
0
0
