# vtk DataFile Version 4.0
Nusif Fluid VTK output
ASCII
DATASET STRUCTURED_POINTS
DIMENSIONS 50 20 1
ORIGIN 0 0 0 
SPACING 0.2 0.2 1
POINT_DATA 1000 

VECTORS velocity double
0.049067 -0.054408  0
0.148548 -0.0551592  0
0.251021 -0.0567489  0
0.357664 -0.0592102  0
0.470311 -0.0626318  0
0.590924 -0.0670506  0
0.721421 -0.0723923  0
0.863295 -0.0783047  0
1.01677 -0.0838755  0
1.17927 -0.0872301  0
1.34329 -0.0852836  0
1.49457 -0.0744165  0
1.61507 -0.0544366  0
1.69301 -0.0318013  0
1.74895 -0.0282791  0
0.888613 0.0532499  0
0 0  0
0 0  0
0 0  0
0 0  0
0 0  0
0 0  0
0 0  0
0 0  0
0 0  0
0 0  0
0 0  0
0 0  0
0 0  0
0 0  0
0 0  0
0 0  0
0 0  0
0 0  0
0 0  0
0 0  0
0 0  0
0 0  0
0 0  0
0 0  0
0 0  0
0 0  0
0 0  0
0 0  0
0 0  0
0 0  0
0 0  0
0 0  0
0 0  0
0 0  0
0.0482838 -0.161851  0
0.146119 -0.1641  0
0.246771 -0.168815  0
0.351358 -0.176108  0
0.461619 -0.186226  0
0.579362 -0.199244  0
0.706327 -0.214942  0
0.843844 -0.23228  0
0.99203 -0.248555  0
1.14825 -0.258148  0
1.30468 -0.251563  0
1.4457 -0.217097  0
1.54994 -0.153084  0
1.6021 -0.0797897  0
1.61417 -0.0565583  0
0.807084 0.0249707  0
0 0  0
0 0  0
0 0  0
0 0  0
0 0  0
0 0  0
0 0  0
0 0  0
0 0  0
0 0  0
0 0  0
0 0  0
0 0  0
0 0  0
0 0  0
0 0  0
0 0  0
0 0  0
0 0  0
0 0  0
0 0  0
0 0  0
0 0  0
0 0  0
0 0  0
0 0  0
0 0  0
0 0  0
0 0  0
0 0  0
0 0  0
0 0  0
0 0  0
0 0  0
0.0467465 -0.266332  0
0.141392 -0.269999  0
0.238581 -0.277627  0
0.339308 -0.289426  0
0.445114 -0.305735  0
0.557561 -0.326633  0
0.678145 -0.351761  0
0.808016 -0.379458  0
0.947219 -0.405331  0
1.09305 -0.419946  0
1.23683 -0.406473  0
1.35955 -0.342387  0
1.43717 -0.22611  0
1.46188 -0.0959768  0
1.53802 -0.0762675  0
0.807084 -0.0282791  0
0 0  0
0 0  0
0 0  0
0 0  0
0 0  0
0 0  0
0 0  0
0 0  0
0 0  0
0 0  0
0 0  0
0 0  0
0 0  0
0 0  0
0 0  0
0 0  0
0 0  0
0 0  0
0 0  0
0 0  0
0 0  0
0 0  0
0 0  0
0 0  0
0 0  0
0 0  0
0 0  0
0 0  0
0 0  0
0 0  0
0 0  0
0 0  0
0 0  0
0 0  0
0.0445199 -0.366948  0
0.134575 -0.371859  0
0.226842 -0.38205  0
0.322143 -0.397809  0
0.421752 -0.419495  0
0.526953 -0.447197  0
0.638991 -0.480448  0
0.758857 -0.51709  0
0.886638 -0.551222  0
1.0197 -0.569442  0
1.14808 -0.545606  0
1.23987 -0.434187  0
1.27054 -0.254925  0
1.36621 -0.175451  0
0.730939 -0.0479884  0
0 0  0
0 0  0
0 0  0
0 0  0
0 0  0
0 0  0
0 0  0
0 0  0
0 0  0
0 0  0
0 0  0
0 0  0
0 0  0
0 0  0
0 0  0
0 0  0
0 0  0
0 0  0
0 0  0
0 0  0
0 0  0
0 0  0
0 0  0
0 0  0
0 0  0
0 0  0
0 0  0
0 0  0
0 0  0
0 0  0
0 0  0
0 0  0
0 0  0
0 0  0
0 0  0
0.0417031 -0.462418  0
0.125977 -0.468369  0
0.2121 -0.480717  0
0.300682 -0.499765  0
0.392703 -0.525863  0
0.489157 -0.55913  0
0.591 -0.598998  0
0.699015 -0.642977  0
0.813395 -0.684008  0
0.932666 -0.705461  0
1.05259 -0.674327  0
1.17202 -0.52899  0
1.2513 -0.276837  0
0.635271 -0.127462  0
0 0  0
0 0  0
0 0  0
0 0  0
0 0  0
0 0  0
0 0  0
0 0  0
0 0  0
0 0  0
0 0  0
0 0  0
0 0  0
0 0  0
0 0  0
0 0  0
0 0  0
0 0  0
0 0  0
0 0  0
0 0  0
0 0  0
0 0  0
0 0  0
0 0  0
0 0  0
0 0  0
0 0  0
0 0  0
0 0  0
0 0  0
0 0  0
0 0  0
0 0  0
0 0  0
0 0  0
0.0384068 -0.551669  0
0.115942 -0.558451  0
0.194949 -0.572511  0
0.275804 -0.594112  0
0.359201 -0.623596  0
0.445813 -0.661081  0
0.536215 -0.705869  0
0.63072 -0.755161  0
0.728751 -0.800727  0
0.82661 -0.822325  0
0.908258 -0.775455  0
0.941784 -0.589019  0
0.470892 -0.443884  0
0 0  0
0 0  0
0 0  0
0 0  0
0 0  0
0 0  0
0 0  0
0 0  0
0 0  0
0 0  0
0 0  0
0 0  0
0 0  0
0 0  0
0 0  0
0 0  0
0 0  0
0 0  0
0 0  0
0 0  0
0 0  0
0 0  0
0 0  0
0 0  0
0 0  0
0 0  0
0 0  0
0 0  0
0 0  0
0 0  0
0 0  0
0 0  0
0 0  0
0 0  0
0 0  0
0 0  0
0 0  0
0.0347487 -0.633863  0
0.104827 -0.641272  0
0.175997 -0.656573  0
0.248415 -0.679994  0
0.322504 -0.711831  0
0.398605 -0.752152  0
0.476905 -0.800055  0
0.557236 -0.852325  0
0.638386 -0.899217  0
0.715777 -0.91552  0
0.795293 -0.855733  0
0.889864 -0.639148  0
0.470892 -0.294509  0
0 0  0
0 0  0
0 0  0
0 0  0
0 0  0
0 0  0
0 0  0
0 0  0
0 0  0
0 0  0
0 0  0
0 0  0
0 0  0
0 0  0
0 0  0
0 0  0
0 0  0
0 0  0
0 0  0
0 0  0
0 0  0
0 0  0
0 0  0
0 0  0
0 0  0
0 0  0
0 0  0
0 0  0
0 0  0
0 0  0
0 0  0
0 0  0
0 0  0
0 0  0
0 0  0
0 0  0
0 0  0
0.0308454 -0.708393  0
0.0929773 -0.716232  0
0.15584 -0.732317  0
0.219394 -0.756861  0
0.283811 -0.790074  0
0.349146 -0.831915  0
0.415273 -0.881254  0
0.481754 -0.934436  0
0.54716 -0.980121  0
0.604078 -0.985348  0
0.628838 -0.898384  0
0.314419 -0.793831  0
0 0  0
0 0  0
0 0  0
0 0  0
0 0  0
0 0  0
0 0  0
0 0  0
0 0  0
0 0  0
0 0  0
0 0  0
0 0  0
0 0  0
0 0  0
0 0  0
0 0  0
0 0  0
0 0  0
0 0  0
0 0  0
0 0  0
0 0  0
0 0  0
0 0  0
0 0  0
0 0  0
0 0  0
0 0  0
0 0  0
0 0  0
0 0  0
0 0  0
0 0  0
0 0  0
0 0  0
0 0  0
0 0  0
0.0268039 -0.774879  0
0.0807158 -0.782952  0
0.13503 -0.799411  0
0.189545 -0.824446  0
0.244219 -0.858163  0
0.298881 -0.900375  0
0.353233 -0.949796  0
0.407208 -1.00284  0
0.462778 -1.04914  0
0.53187 -1.05465  0
0.600575 -0.923958  0
0.314419 -0.449192  0
0 0  0
0 0  0
0 0  0
0 0  0
0 0  0
0 0  0
0 0  0
0 0  0
0 0  0
0 0  0
0 0  0
0 0  0
0 0  0
0 0  0
0 0  0
0 0  0
0 0  0
0 0  0
0 0  0
0 0  0
0 0  0
0 0  0
0 0  0
0 0  0
0 0  0
0 0  0
0 0  0
0 0  0
0 0  0
0 0  0
0 0  0
0 0  0
0 0  0
0 0  0
0 0  0
0 0  0
0 0  0
0 0  0
0.0227179 -0.833142  0
0.0683318 -0.841265  0
0.114064 -0.857752  0
0.159603 -0.882744  0
0.204735 -0.916234  0
0.249056 -0.957825  0
0.291865 -1.00602  0
0.332127 -1.05734  0
0.368711 -1.10326  0
0.40635 -1.11549  0
0.213374 -0.988775  0
0 0  0
0 0  0
0 0  0
0 0  0
0 0  0
0 0  0
0 0  0
0 0  0
0 0  0
0 0  0
0 0  0
0 0  0
0 0  0
0 0  0
0 0  0
0 0  0
0 0  0
0 0  0
0 0  0
0 0  0
0 0  0
0 0  0
0 0  0
0 0  0
0 0  0
0 0  0
0 0  0
0 0  0
0 0  0
0 0  0
0 0  0
0 0  0
0 0  0
0 0  0
0 0  0
0 0  0
0 0  0
0 0  0
0 0  0
0.0186754 -0.883185  0
0.0561006 -0.891205  0
0.0934256 -0.907449  0
0.130283 -0.932005  0
0.166364 -0.964732  0
0.201136 -1.00495  0
0.233693 -1.05077  0
0.262597 -1.09824  0
0.285873 -1.13869  0
0.307353 -1.14742  0
0.159438 -1.05129  0
0 0  0
0 0  0
0 0  0
0 0  0
0 0  0
0 0  0
0 0  0
0 0  0
0 0  0
0 0  0
0 0  0
0 0  0
0 0  0
0 0  0
0 0  0
0 0  0
0 0  0
0 0  0
0 0  0
0 0  0
0 0  0
0 0  0
0 0  0
0 0  0
0 0  0
0 0  0
0 0  0
0 0  0
0 0  0
0 0  0
0 0  0
0 0  0
0 0  0
0 0  0
0 0  0
0 0  0
0 0  0
0 0  0
0 0  0
0.0147841 -0.925207  0
0.0443466 -0.933013  0
0.0736511 -0.948824  0
0.10233 -0.972708  0
0.130081 -1.00439  0
0.156387 -1.04289  0
0.180364 -1.08588  0
0.200651 -1.12883  0
0.21519 -1.16241  0
0.227603 -1.16583  0
0.117247 -1.08945  0
0 0  0
0 0  0
0 0  0
0 0  0
0 0  0
0 0  0
0 0  0
0 0  0
0 0  0
0 0  0
0 0  0
0 0  0
0 0  0
0 0  0
0 0  0
0 0  0
0 0  0
0 0  0
0 0  0
0 0  0
0 0  0
0 0  0
0 0  0
0 0  0
0 0  0
0 0  0
0 0  0
0 0  0
0 0  0
0 0  0
0 0  0
0 0  0
0 0  0
0 0  0
0 0  0
0 0  0
0 0  0
0 0  0
0 0  0
0.0112107 -0.959681  0
0.0335629 -0.9672  0
0.0555517 -0.982461  0
0.0768549 -1.00558  0
0.0972351 -1.03617  0
0.11626 -1.07295  0
0.133191 -1.11323  0
0.146927 -1.152  0
0.155368 -1.17872  0
0.162015 -1.17683  0
0.0830632 -1.11516  0
0 0  0
0 0  0
0 0  0
0 0  0
0 0  0
0 0  0
0 0  0
0 0  0
0 0  0
0 0  0
0 0  0
0 0  0
0 0  0
0 0  0
0 0  0
0 0  0
0 0  0
0 0  0
0 0  0
0 0  0
0 0  0
0 0  0
0 0  0
0 0  0
0 0  0
0 0  0
0 0  0
0 0  0
0 0  0
0 0  0
0 0  0
0 0  0
0 0  0
0 0  0
0 0  0
0 0  0
0 0  0
0 0  0
0 0  0
0.00829277 -0.987586  0
0.024777 -0.994788  0
0.0408628 -1.00946  0
0.0562592 -1.03179  0
0.0707398 -1.06133  0
0.0839041 -1.09649  0
0.0951936 -1.13442  0
0.103789 -1.16966  0
0.107589 -1.18982  0
0.109521 -1.18257  0
0.0555724 -1.13822  0
0 0  0
0 0  0
0 0  0
0 0  0
0 0  0
0 0  0
0 0  0
0 0  0
0 0  0
0 0  0
0 0  0
0 0  0
0 0  0
0 0  0
0 0  0
0 0  0
0 0  0
0 0  0
0 0  0
0 0  0
0 0  0
0 0  0
0 0  0
0 0  0
0 0  0
0 0  0
0 0  0
0 0  0
0 0  0
0 0  0
0 0  0
0 0  0
0 0  0
0 0  0
0 0  0
0 0  0
0 0  0
0 0  0
0 0  0
0.00673613 -1.01094  0
0.0201059 -1.01786  0
0.0331076 -1.03197  0
0.0453828 -1.05345  0
0.0564584 -1.08173  0
0.0657855 -1.11509  0
0.0728039 -1.15064  0
0.0772032 -1.18295  0
0.0780897 -1.19773  0
0.0774368 -1.18419  0
0.0387184 -1.16734  0
0 0  0
0 0  0
0 0  0
0 0  0
0 0  0
0 0  0
0 0  0
0 0  0
0 0  0
0 0  0
0 0  0
0 0  0
0 0  0
0 0  0
0 0  0
0 0  0
0 0  0
0 0  0
0 0  0
0 0  0
0 0  0
0 0  0
0 0  0
0 0  0
0 0  0
0 0  0
0 0  0
0 0  0
0 0  0
0 0  0
0 0  0
0 0  0
0 0  0
0 0  0
0 0  0
0 0  0
0 0  0
0 0  0
0 0  0
0.00738646 -1.02921  0
0.0221094 -1.03595  0
0.0364547 -1.04946  0
0.0497016 -1.06971  0
0.0610206 -1.0961  0
0.0690249 -1.12629  0
0.0728783 -1.15856  0
0.0727524 -1.18756  0
0.0716963 -1.20121  0
0.0745666 -1.1927  0
0.0387184 -0.592095  0
0 0  0
0 0  0
0 0  0
0 0  0
0 0  0
0 0  0
0 0  0
0 0  0
0 0  0
0 0  0
0 0  0
0 0  0
0 0  0
0 0  0
0 0  0
0 0  0
0 0  0
0 0  0
0 0  0
0 0  0
0 0  0
0 0  0
0 0  0
0 0  0
0 0  0
0 0  0
0 0  0
0 0  0
0 0  0
0 0  0
0 0  0
0 0  0
0 0  0
0 0  0
0 0  0
0 0  0
0 0  0
0 0  0
0 0  0
0.0107288 -0.518299  0
0.0320462 -0.521641  0
0.052789 -0.528236  0
0.072056 -0.537976  0
0.0876537 -0.55059  0
0.0981787 -0.564609  0
0.101522 -0.579744  0
0.0936155 -0.593253  0
0.0790507 -0.600607  0
0.0358482 -0.600607  0
0 0  0
0 0  0
0 0  0
0 0  0
0 0  0
0 0  0
0 0  0
0 0  0
0 0  0
0 0  0
0 0  0
0 0  0
0 0  0
0 0  0
0 0  0
0 0  0
0 0  0
0 0  0
0 0  0
0 0  0
0 0  0
0 0  0
0 0  0
0 0  0
0 0  0
0 0  0
0 0  0
0 0  0
0 0  0
0 0  0
0 0  0
0 0  0
0 0  0
0 0  0
0 0  0
0 0  0
0 0  0
0 0  0
0 0  0
0 0  0
0 0  0
0 0  0
0 0  0
0 0  0
0 0  0
0 0  0
0 0  0
0 0  0
0 0  0
0 0  0
0 0  0
0 0  0
0 0  0
0 0  0
0 0  0
0 0  0
0 0  0
0 0  0
0 0  0
0 0  0
0 0  0
0 0  0
0 0  0
0 0  0
0 0  0
0 0  0
0 0  0
0 0  0
0 0  0
0 0  0
0 0  0
0 0  0
0 0  0
0 0  0
0 0  0
0 0  0
0 0  0
0 0  0
0 0  0
0 0  0
0 0  0
0 0  0
0 0  0
0 0  0
0 0  0
0 0  0
0 0  0
0 0  0
0 0  0
0 0  0
0 0  0
0 0  0
0 0  0
0 0  0
0 0  0
0 0  0
0 0  0
0 0  0
0 0  0
0 0  0
0 0  0
0 0  0
0 0  0
0 0  0
0 0  0
0 0  0
0 0  0
0 0  0
0 0  0
0 0  0
0 0  0
0 0  0
0 0  0
0 0  0
0 0  0
0 0  0
0 0  0
0 0  0
0 0  0
0 0  0
0 0  0
0 0  0
0 0  0
0 0  0
0 0  0
0 0  0
0 0  0
0 0  0
0 0  0
0 0  0
0 0  0
0 0  0
0 0  0
0 0  0
0 0  0
0 0  0
0 0  0
0 0  0
0 0  0
0 0  0
0 0  0
0 0  0
0 0  0
0 0  0
0 0  0
0 0  0
0 0  0
0 0  0
0 0  0
0 0  0
0 0  0
0 0  0
0 0  0
0 0  0
0 0  0
0 0  0
0 0  0
0 0  0
0 0  0
0 0  0
0 0  0
0 0  0
0 0  0
0 0  0
0 0  0
0 0  0
0 0  0
0 0  0
0 0  0
0 0  0
0 0  0
0 0  0
0 0  0
0 0  0
0 0  0
0 0  0
0 0  0
0 0  0
0 0  0
0 0  0
0 0  0
0 0  0
0 0  0
0 0  0
0 0  0
0 0  0
0 0  0
0 0  0
0 0  0
0 0  0

SCALARS pressure double 1
LOOKUP_TABLE default
2.7664
2.74856
2.7098
2.64979
2.56685
2.45851
2.3214
2.15124
1.94327
1.69361
1.40244
1.07857
0.740514
0.402444
0.0397958
0
0
0
0
0
0
0
0
0
0
0
0
0
0
0
0
0
0
0
0
0
0
0
0
0
0
0
0
0
0
0
0
0
0
0
2.55921
2.54112
2.50194
2.44126
2.35729
2.24743
2.10815
1.935
1.72303
1.46842
1.17227
0.846917
0.519285
0.214885
-0.0534016
0
0
0
0
0
0
0
0
0
0
0
0
0
0
0
0
0
0
0
0
0
0
0
0
0
0
0
0
0
0
0
0
0
0
0
2.34853
2.33014
2.29046
2.22892
2.14362
2.03174
1.88949
1.71203
1.4939
1.23068
0.923701
0.590332
0.275539
0.000402125
0
0
0
0
0
0
0
0
0
0
0
0
0
0
0
0
0
0
0
0
0
0
0
0
0
0
0
0
0
0
0
0
0
0
0
0
2.13649
2.1178
2.07765
2.01533
1.92877
1.81496
1.66981
1.48806
1.2635
0.990172
0.666794
0.311375
0.024835
0
0
0
0
0
0
0
0
0
0
0
0
0
0
0
0
0
0
0
0
0
0
0
0
0
0
0
0
0
0
0
0
0
0
0
0
0
1.92502
1.90614
1.86578
1.80308
1.71584
1.60089
1.45395
1.26958
1.04133
0.76226
0.423732
0
0
0
0
0
0
0
0
0
0
0
0
0
0
0
0
0
0
0
0
0
0
0
0
0
0
0
0
0
0
0
0
0
0
0
0
0
0
0
1.71622
1.69735
1.65725
1.59492
1.50806
1.39337
1.24654
1.0623
0.835504
0.565396
0.27003
0.105686
0
0
0
0
0
0
0
0
0
0
0
0
0
0
0
0
0
0
0
0
0
0
0
0
0
0
0
0
0
0
0
0
0
0
0
0
0
0
1.51207
1.49355
1.45436
1.39343
1.3084
1.1959
1.05149
0.869664
0.644434
0.371083
0.0427979
0
0
0
0
0
0
0
0
0
0
0
0
0
0
0
0
0
0
0
0
0
0
0
0
0
0
0
0
0
0
0
0
0
0
0
0
0
0
0
1.31426
1.29647
1.25901
1.20075
1.11937
1.01153
0.872753
0.697468
0.480105
0.222293
-0.0214374
0
0
0
0
0
0
0
0
0
0
0
0
0
0
0
0
0
0
0
0
0
0
0
0
0
0
0
0
0
0
0
0
0
0
0
0
0
0
0
1.12397
1.10735
1.0725
1.01833
0.94265
0.842319
0.713027
0.548826
0.340632
0.0716671
0
0
0
0
0
0
0
0
0
0
0
0
0
0
0
0
0
0
0
0
0
0
0
0
0
0
0
0
0
0
0
0
0
0
0
0
0
0
0
0
0.941758
0.926746
0.895399
0.846734
0.778834
0.689027
0.573832
0.428992
0.249836
0.0360257
0
0
0
0
0
0
0
0
0
0
0
0
0
0
0
0
0
0
0
0
0
0
0
0
0
0
0
0
0
0
0
0
0
0
0
0
0
0
0
0
0.767517
0.754518
0.727472
0.68556
0.627231
0.550408
0.452639
0.331516
0.18579
0.0210363
0
0
0
0
0
0
0
0
0
0
0
0
0
0
0
0
0
0
0
0
0
0
0
0
0
0
0
0
0
0
0
0
0
0
0
0
0
0
0
0
0.600496
0.589837
0.567728
0.533543
0.486108
0.42392
0.345377
0.249315
0.136116
0.0127581
0
0
0
0
0
0
0
0
0
0
0
0
0
0
0
0
0
0
0
0
0
0
0
0
0
0
0
0
0
0
0
0
0
0
0
0
0
0
0
0
0.439355
0.431272
0.414542
0.388744
0.353063
0.306457
0.247903
0.176837
0.0941694
0.00697729
0
0
0
0
0
0
0
0
0
0
0
0
0
0
0
0
0
0
0
0
0
0
0
0
0
0
0
0
0
0
0
0
0
0
0
0
0
0
0
0
0.282268
0.276899
0.265798
0.248771
0.225343
0.194822
0.156543
0.109962
0.0559143
0.00302728
0
0
0
0
0
0
0
0
0
0
0
0
0
0
0
0
0
0
0
0
0
0
0
0
0
0
0
0
0
0
0
0
0
0
0
0
0
0
0
0
0.127018
0.124418
0.119024
0.110956
0.100116
0.0860014
0.0683602
0.0457811
0.0168233
-0.00769232
0
0
0
0
0
0
0
0
0
0
0
0
0
0
0
0
0
0
0
0
0
0
0
0
0
0
0
0
0
0
0
0
0
0
0
0
0
0
0
0
-0.0133923
-0.0131469
-0.0127842
-0.0115921
-0.00908403
-0.00628294
-0.00162416
0.00161251
-0.00846102
0
0
0
0
0
0
0
0
0
0
0
0
0
0
0
0
0
0
0
0
0
0
0
0
0
0
0
0
0
0
0
0
0
0
0
0
0
0
0
0
0
0
0
0
0
0
0
0
0
0
0
0
0
0
0
0
0
0
0
0
0
0
0
0
0
0
0
0
0
0
0
0
0
0
0
0
0
0
0
0
0
0
0
0
0
0
0
0
0
0
0
0
0
0
0
0
0
0
0
0
0
0
0
0
0
0
0
0
0
0
0
0
0
0
0
0
0
0
0
0
0
0
0
0
0
0
0
0
0
0
0
0
0
0
0
0
0
0
0
0
0
0
0
0
0
0
0
0
0
0
0
0
0
0
0
0
0
0
0
0
0
0
0
0
0
0
0
0
0
0
0
0
0
0
0
0
0
0
0
0
0
0
0
0
0
0
0
0
0
0
0
0
0
0
0
0
0
0
0
0
0
0
0
0
0
0
0
0
0
0
0
0
0
0
0
0
0
0
0
0
0
0
0
0
0
0
0
0
0
0
0
0
0
0
0
0
0
0
0
0
0
SCALARS rhs double 1
LOOKUP_TABLE default
-5.92628
-5.86128
-5.86486
-5.90886
-5.98108
-6.08767
-6.23304
-6.41223
-6.59498
-6.70132
-6.59396
-6.15948
-5.53659
-5.30364
3.21053
0
0
0
0
0
0
0
0
0
0
0
0
0
0
0
0
0
0
0
0
0
0
0
0
0
0
0
0
0
0
0
0
0
0
0
-0.692315
-0.638964
-0.647822
-0.693093
-0.762399
-0.85986
-0.988204
-1.14113
-1.28822
-1.35044
-1.18663
-0.675109
0.0231455
0.234464
2.13862
0
0
0
0
0
0
0
0
0
0
0
0
0
0
0
0
0
0
0
0
0
0
0
0
0
0
0
0
0
0
0
0
0
0
0
-0.634177
-0.586845
-0.596113
-0.639278
-0.704029
-0.793699
-0.909703
-1.0433
-1.15814
-1.15884
-0.86252
-0.0878305
0.824833
2.13862
0
0
0
0
0
0
0
0
0
0
0
0
0
0
0
0
0
0
0
0
0
0
0
0
0
0
0
0
0
0
0
0
0
0
0
0
-0.580521
-0.536853
-0.54515
-0.583968
-0.64155
-0.720768
-0.821646
-0.932971
-1.01025
-0.931032
-0.447035
0.921465
2.13862
0
0
0
0
0
0
0
0
0
0
0
0
0
0
0
0
0
0
0
0
0
0
0
0
0
0
0
0
0
0
0
0
0
0
0
0
0
-0.520179
-0.479415
-0.48661
-0.520604
-0.570749
-0.639327
-0.725165
-0.815201
-0.857009
-0.703327
0.113653
4.1626
0
0
0
0
0
0
0
0
0
0
0
0
0
0
0
0
0
0
0
0
0
0
0
0
0
0
0
0
0
0
0
0
0
0
0
0
0
0
-0.45672
-0.418527
-0.424504
-0.453761
-0.496646
-0.554646
-0.625447
-0.694893
-0.708252
-0.55978
1.44659
1.03457
0
0
0
0
0
0
0
0
0
0
0
0
0
0
0
0
0
0
0
0
0
0
0
0
0
0
0
0
0
0
0
0
0
0
0
0
0
0
-0.39343
-0.357795
-0.362617
-0.387503
-0.423567
-0.47114
-0.526148
-0.56968
-0.52778
-0.225825
5.58557
0
0
0
0
0
0
0
0
0
0
0
0
0
0
0
0
0
0
0
0
0
0
0
0
0
0
0
0
0
0
0
0
0
0
0
0
0
0
0
-0.333046
-0.300135
-0.304117
-0.325166
-0.355156
-0.393424
-0.434759
-0.458203
-0.382535
0.315088
4.1626
0
0
0
0
0
0
0
0
0
0
0
0
0
0
0
0
0
0
0
0
0
0
0
0
0
0
0
0
0
0
0
0
0
0
0
0
0
0
0
-0.277553
-0.247758
-0.251287
-0.269122
-0.294044
-0.324715
-0.356241
-0.374294
-0.294257
13.5853
0
0
0
0
0
0
0
0
0
0
0
0
0
0
0
0
0
0
0
0
0
0
0
0
0
0
0
0
0
0
0
0
0
0
0
0
0
0
0
0
-0.228187
-0.202063
-0.205503
-0.220884
-0.241757
-0.265926
-0.287814
-0.294299
-0.191654
13.8354
0
0
0
0
0
0
0
0
0
0
0
0
0
0
0
0
0
0
0
0
0
0
0
0
0
0
0
0
0
0
0
0
0
0
0
0
0
0
0
0
-0.185551
-0.163757
-0.167416
-0.181046
-0.198903
-0.218113
-0.232421
-0.229208
-0.111731
13.9858
0
0
0
0
0
0
0
0
0
0
0
0
0
0
0
0
0
0
0
0
0
0
0
0
0
0
0
0
0
0
0
0
0
0
0
0
0
0
0
0
-0.149869
-0.132969
-0.136936
-0.149213
-0.164867
-0.180645
-0.190237
-0.181989
-0.0571713
13.7135
0
0
0
0
0
0
0
0
0
0
0
0
0
0
0
0
0
0
0
0
0
0
0
0
0
0
0
0
0
0
0
0
0
0
0
0
0
0
0
0
-0.121112
-0.109409
-0.113391
-0.124024
-0.137383
-0.150252
-0.157104
-0.147149
-0.0180272
12.3671
0
0
0
0
0
0
0
0
0
0
0
0
0
0
0
0
0
0
0
0
0
0
0
0
0
0
0
0
0
0
0
0
0
0
0
0
0
0
0
0
-0.0991505
-0.0926012
-0.0955022
-0.102793
-0.111892
-0.120631
-0.125409
-0.116887
0.0101786
8.68271
0
0
0
0
0
0
0
0
0
0
0
0
0
0
0
0
0
0
0
0
0
0
0
0
0
0
0
0
0
0
0
0
0
0
0
0
0
0
0
0
0.304048
0.307837
0.311707
0.31647
0.32236
0.328357
0.334076
0.34284
0.457627
5.58557
0
0
0
0
0
0
0
0
0
0
0
0
0
0
0
0
0
0
0
0
0
0
0
0
0
0
0
0
0
0
0
0
0
0
0
0
0
0
0
0
4.44385
4.45598
4.45798
4.45723
4.46041
4.52522
5.16545
5.22779
16.4546
0
0
0
0
0
0
0
0
0
0
0
0
0
0
0
0
0
0
0
0
0
0
0
0
0
0
0
0
0
0
0
0
0
0
0
0
0
0
0
0
0
3.60674
3.66202
3.98033
3.98143
3.98244
3.98396
3.23505
3.31189
11.5415
0
0
0
0
0
0
0
0
0
0
0
0
0
0
0
0
0
0
0
0
0
0
0
0
0
0
0
0
0
0
0
0
0
0
0
0
0
0
0
0
0
6.01719
6.36025
5.75447
5.75462
5.75506
5.75536
5.75588
5.76119
8.30564
0
0
0
0
0
0
0
0
0
0
0
0
0
0
0
0
0
0
0
0
0
0
0
0
0
0
0
0
0
0
0
0
0
0
0
0
0
0
0
0
0
3.29611
2.74112
2.74112
2.74112
2.74112
2.74112
2.74112
2.74112
2.74112
0
0
0
0
0
0
0
0
0
0
0
0
0
0
0
0
0
0
0
0
0
0
0
0
0
0
0
0
0
0
0
0
0
0
0
0
0
0
0
0
0
0
0
0
0
0
0
0
0
0
0
0
0
0
0
0
0
0
0
0
0
0
0
0
0
0
0
0
0
0
0
0
0
0
0
0
0
0
0
0
0
0
0
0
0
0
0
0
0
0
0
