# vtk DataFile Version 4.0
Nusif Fluid VTK output
ASCII
DATASET STRUCTURED_POINTS
DIMENSIONS 50 20 1
ORIGIN 0 0 0 
SPACING 0.2 0.2 1
POINT_DATA 1000 

VECTORS velocity double
0.0545637 -0.0626794  0
0.164011 -0.0635118  0
0.275423 -0.0652227  0
0.390953 -0.0677535  0
0.512244 -0.0710878  0
0.64081 -0.0751433  0
0.777932 -0.0797438  0
0.924406 -0.0845773  0
1.08013 -0.0890881  0
1.24362 -0.0924302  0
1.41141 -0.093458  0
1.57759 -0.090887  0
1.73408 -0.0838186  0
1.87192 -0.0722894  0
1.98305 -0.0571455  0
2.06199 -0.040131  0
2.10687 -0.0231096  0
2.12037 -0.00876263  0
2.10986 0.000892026  0
2.08214 0.00843867  0
2.06451 0  0
1.03225 0  0
0 0  0
0 0  0
0 0  0
0 0  0
0 0  0
0 0  0
0 0  0
0 0  0
0 0  0
0 0  0
0 0  0
0 0  0
0 0  0
0 0  0
0 0  0
0 0  0
0 0  0
0 0  0
0 0  0
0 0  0
0 0  0
0 0  0
0 0  0
0 0  0
0 0  0
0 0  0
0 0  0
0 0  0
0.0536714 -0.18765  0
0.161312 -0.190145  0
0.270908 -0.195195  0
0.384599 -0.202726  0
0.504004 -0.21265  0
0.630687 -0.224784  0
0.765955 -0.238587  0
0.910665 -0.253107  0
1.06477 -0.266675  0
1.22673 -0.276675  0
1.39273 -0.279488  0
1.55615 -0.271012  0
1.70792 -0.248555  0
1.83828 -0.212423  0
1.9396 -0.166172  0
2.00751 -0.114702  0
2.04404 -0.0667068  0
2.05259 -0.0239914  0
2.04508 -0.00263652  0
2.0403 0.0168773  0
2.0524 0.00843867  0
1.03225 0  0
0 0  0
0 0  0
0 0  0
0 0  0
0 0  0
0 0  0
0 0  0
0 0  0
0 0  0
0 0  0
0 0  0
0 0  0
0 0  0
0 0  0
0 0  0
0 0  0
0 0  0
0 0  0
0 0  0
0 0  0
0 0  0
0 0  0
0 0  0
0 0  0
0 0  0
0 0  0
0 0  0
0 0  0
0.0519298 -0.310537  0
0.156109 -0.31467  0
0.262204 -0.322939  0
0.372318 -0.335353  0
0.488062 -0.351782  0
0.611059 -0.371951  0
0.742756 -0.395036  0
0.884112 -0.419425  0
1.03521 -0.442272  0
1.19439 -0.458943  0
1.35717 -0.462769  0
1.51528 -0.446043  0
1.6573 -0.404107  0
1.77093 -0.337673  0
1.85156 -0.259683  0
1.89662 -0.170988  0
1.91552 -0.102665  0
1.92222 -0.0308843  0
1.92264 -0.0070571  0
1.98147 0.00491012  0
1.02015 0.00843867  0
0 0  0
0 0  0
0 0  0
0 0  0
0 0  0
0 0  0
0 0  0
0 0  0
0 0  0
0 0  0
0 0  0
0 0  0
0 0  0
0 0  0
0 0  0
0 0  0
0 0  0
0 0  0
0 0  0
0 0  0
0 0  0
0 0  0
0 0  0
0 0  0
0 0  0
0 0  0
0 0  0
0 0  0
0 0  0
0.0493627 -0.429265  0
0.148464 -0.434941  0
0.249428 -0.446332  0
0.354236 -0.463476  0
0.464544 -0.486345  0
0.582017 -0.514543  0
0.708288 -0.547083  0
0.844569 -0.581736  0
0.991104 -0.614339  0
1.14604 -0.637753  0
1.30377 -0.641254  0
1.45373 -0.612418  0
1.57953 -0.542379  0
1.66382 -0.434153  0
1.70862 -0.325465  0
1.7251 -0.194375  0
1.72664 -0.118135  0
1.81252 -0.0747232  0
1.91052 -0.00352855  0
0.961322 -0.00352855  0
0 0  0
0 0  0
0 0  0
0 0  0
0 0  0
0 0  0
0 0  0
0 0  0
0 0  0
0 0  0
0 0  0
0 0  0
0 0  0
0 0  0
0 0  0
0 0  0
0 0  0
0 0  0
0 0  0
0 0  0
0 0  0
0 0  0
0 0  0
0 0  0
0 0  0
0 0  0
0 0  0
0 0  0
0 0  0
0 0  0
0.0460616 -0.542293  0
0.138562 -0.549372  0
0.23281 -0.56371  0
0.330602 -0.585349  0
0.4336 -0.614431  0
0.54356 -0.6506  0
0.662303 -0.692764  0
0.791401 -0.738168  0
0.931304 -0.781109  0
1.07967 -0.811078  0
1.22922 -0.812017  0
1.36769 -0.766893  0
1.47694 -0.659797  0
1.53511 -0.496054  0
1.54872 -0.349618  0
1.59879 -0.272766  0
1.68775 -0.0590677  0
0.863322 -0.0590677  0
0 0  0
0 0  0
0 0  0
0 0  0
0 0  0
0 0  0
0 0  0
0 0  0
0 0  0
0 0  0
0 0  0
0 0  0
0 0  0
0 0  0
0 0  0
0 0  0
0 0  0
0 0  0
0 0  0
0 0  0
0 0  0
0 0  0
0 0  0
0 0  0
0 0  0
0 0  0
0 0  0
0 0  0
0 0  0
0 0  0
0 0  0
0 0  0
0.0421134 -0.648194  0
0.126643 -0.656516  0
0.212683 -0.673468  0
0.301808 -0.699203  0
0.395575 -0.734048  0
0.49583 -0.777913  0
0.604609 -0.829736  0
0.72388 -0.886334  0
0.854262 -0.940016  0
0.992145 -0.975234  0
1.12591 -0.968004  0
1.24035 -0.900649  0
1.32244 -0.754243  0
1.35389 -0.51888  0
1.4513 -0.434249  0
0.774361 -0.174809  0
0 0  0
0 0  0
0 0  0
0 0  0
0 0  0
0 0  0
0 0  0
0 0  0
0 0  0
0 0  0
0 0  0
0 0  0
0 0  0
0 0  0
0 0  0
0 0  0
0 0  0
0 0  0
0 0  0
0 0  0
0 0  0
0 0  0
0 0  0
0 0  0
0 0  0
0 0  0
0 0  0
0 0  0
0 0  0
0 0  0
0 0  0
0 0  0
0 0  0
0 0  0
0.0376483 -0.745779  0
0.113115 -0.75511  0
0.189692 -0.774164  0
0.268666 -0.803312  0
0.351364 -0.843155  0
0.439598 -0.894042  0
0.535592 -0.955162  0
0.64178 -1.02316  0
0.759049 -1.08765  0
0.881616 -1.12488  0
0.98827 -1.09563  0
1.05772 -0.993774  0
1.08176 -0.794909  0
1.21782 -0.656895  0
0.676943 -0.25944  0
0 0  0
0 0  0
0 0  0
0 0  0
0 0  0
0 0  0
0 0  0
0 0  0
0 0  0
0 0  0
0 0  0
0 0  0
0 0  0
0 0  0
0 0  0
0 0  0
0 0  0
0 0  0
0 0  0
0 0  0
0 0  0
0 0  0
0 0  0
0 0  0
0 0  0
0 0  0
0 0  0
0 0  0
0 0  0
0 0  0
0 0  0
0 0  0
0 0  0
0 0  0
0 0  0
0.0329008 -0.834249  0
0.0986965 -0.84421  0
0.165039 -0.864726  0
0.232816 -0.896252  0
0.302941 -0.939827  0
0.376965 -0.996418  0
0.457107 -1.06572  0
0.546374 -1.14487  0
0.646465 -1.22014  0
0.749957 -1.25531  0
0.821633 -1.1804  0
0.842557 -1.02703  0
0.962157 -0.910972  0
0.540879 -0.397454  0
0 0  0
0 0  0
0 0  0
0 0  0
0 0  0
0 0  0
0 0  0
0 0  0
0 0  0
0 0  0
0 0  0
0 0  0
0 0  0
0 0  0
0 0  0
0 0  0
0 0  0
0 0  0
0 0  0
0 0  0
0 0  0
0 0  0
0 0  0
0 0  0
0 0  0
0 0  0
0 0  0
0 0  0
0 0  0
0 0  0
0 0  0
0 0  0
0 0  0
0 0  0
0 0  0
0 0  0
0.0283113 -0.913498  0
0.0846108 -0.923477  0
0.140781 -0.944762  0
0.197214 -0.977232  0
0.254213 -1.02278  0
0.312703 -1.08279  0
0.37424 -1.15785  0
0.442373 -1.24698  0
0.520157 -1.33275  0
0.6029 -1.36579  0
0.644194 -1.21055  0
0.743375 -1.11879  0
0.421278 -0.513517  0
0 0  0
0 0  0
0 0  0
0 0  0
0 0  0
0 0  0
0 0  0
0 0  0
0 0  0
0 0  0
0 0  0
0 0  0
0 0  0
0 0  0
0 0  0
0 0  0
0 0  0
0 0  0
0 0  0
0 0  0
0 0  0
0 0  0
0 0  0
0 0  0
0 0  0
0 0  0
0 0  0
0 0  0
0 0  0
0 0  0
0 0  0
0 0  0
0 0  0
0 0  0
0 0  0
0 0  0
0 0  0
0.024425 -0.984379  0
0.0726727 -0.993691  0
0.120249 -1.01512  0
0.166635 -1.04652  0
0.212066 -1.09276  0
0.255821 -1.1519  0
0.298262 -1.22955  0
0.34362 -1.32561  0
0.391111 -1.41625  0
0.434502 -1.43608  0
0.549235 -1.26397  0
0.322097 -0.605275  0
0 0  0
0 0  0
0 0  0
0 0  0
0 0  0
0 0  0
0 0  0
0 0  0
0 0  0
0 0  0
0 0  0
0 0  0
0 0  0
0 0  0
0 0  0
0 0  0
0 0  0
0 0  0
0 0  0
0 0  0
0 0  0
0 0  0
0 0  0
0 0  0
0 0  0
0 0  0
0 0  0
0 0  0
0 0  0
0 0  0
0 0  0
0 0  0
0 0  0
0 0  0
0 0  0
0 0  0
0 0  0
0 0  0
0.0217754 -1.04882  0
0.0648362 -1.05722  0
0.108534 -1.07972  0
0.148046 -1.10468  0
0.183977 -1.15282  0
0.218958 -1.20743  0
0.251091 -1.28544  0
0.281382 -1.38221  0
0.30575 -1.46835  0
0.315813 -1.45585  0
0.157906 -1.38662  0
0 0  0
0 0  0
0 0  0
0 0  0
0 0  0
0 0  0
0 0  0
0 0  0
0 0  0
0 0  0
0 0  0
0 0  0
0 0  0
0 0  0
0 0  0
0 0  0
0 0  0
0 0  0
0 0  0
0 0  0
0 0  0
0 0  0
0 0  0
0 0  0
0 0  0
0 0  0
0 0  0
0 0  0
0 0  0
0 0  0
0 0  0
0 0  0
0 0  0
0 0  0
0 0  0
0 0  0
0 0  0
0 0  0
0 0  0
0.0203244 -1.10926  0
0.0623611 -1.11865  0
0.10552 -1.14203  0
0.14522 -1.14926  0
0.181202 -1.1986  0
0.221899 -1.25577  0
0.256639 -1.32241  0
0.283843 -1.42116  0
0.299276 -1.48762  0
0.307544 -1.47174  0
0.157906 -0.727927  0
0 0  0
0 0  0
0 0  0
0 0  0
0 0  0
0 0  0
0 0  0
0 0  0
0 0  0
0 0  0
0 0  0
0 0  0
0 0  0
0 0  0
0 0  0
0 0  0
0 0  0
0 0  0
0 0  0
0 0  0
0 0  0
0 0  0
0 0  0
0 0  0
0 0  0
0 0  0
0 0  0
0 0  0
0 0  0
0 0  0
0 0  0
0 0  0
0 0  0
0 0  0
0 0  0
0 0  0
0 0  0
0 0  0
0 0  0
0.0228274 -1.16159  0
0.0550499 -1.15898  0
0.0644451 -1.17271  0
0.138367 -1.17011  0
0.236814 -0.608163  0
0.280826 -0.639367  0
0.335568 -0.667091  0
0.360562 -0.718296  0
0.32479 -0.74381  0
0.149638 -0.74381  0
0 0  0
0 0  0
0 0  0
0 0  0
0 0  0
0 0  0
0 0  0
0 0  0
0 0  0
0 0  0
0 0  0
0 0  0
0 0  0
0 0  0
0 0  0
0 0  0
0 0  0
0 0  0
0 0  0
0 0  0
0 0  0
0 0  0
0 0  0
0 0  0
0 0  0
0 0  0
0 0  0
0 0  0
0 0  0
0 0  0
0 0  0
0 0  0
0 0  0
0 0  0
0 0  0
0 0  0
0 0  0
0 0  0
0 0  0
0 0  0
0.0148026 -0.592211  0
0.0491917 -0.584186  0
0.0666116 -0.586353  0
0.0322225 -0.586353  0
0 0  0
0 0  0
0 0  0
0 0  0
0 0  0
0 0  0
0 0  0
0 0  0
0 0  0
0 0  0
0 0  0
0 0  0
0 0  0
0 0  0
0 0  0
0 0  0
0 0  0
0 0  0
0 0  0
0 0  0
0 0  0
0 0  0
0 0  0
0 0  0
0 0  0
0 0  0
0 0  0
0 0  0
0 0  0
0 0  0
0 0  0
0 0  0
0 0  0
0 0  0
0 0  0
0 0  0
0 0  0
0 0  0
0 0  0
0 0  0
0 0  0
0 0  0
0 0  0
0 0  0
0 0  0
0 0  0
0 0  0
0 0  0
0 0  0
0 0  0
0 0  0
0 0  0
0 0  0
0 0  0
0 0  0
0 0  0
0 0  0
0 0  0
0 0  0
0 0  0
0 0  0
0 0  0
0 0  0
0 0  0
0 0  0
0 0  0
0 0  0
0 0  0
0 0  0
0 0  0
0 0  0
0 0  0
0 0  0
0 0  0
0 0  0
0 0  0
0 0  0
0 0  0
0 0  0
0 0  0
0 0  0
0 0  0
0 0  0
0 0  0
0 0  0
0 0  0
0 0  0
0 0  0
0 0  0
0 0  0
0 0  0
0 0  0
0 0  0
0 0  0
0 0  0
0 0  0
0 0  0
0 0  0
0 0  0
0 0  0
0 0  0
0 0  0
0 0  0
0 0  0
0 0  0
0 0  0
0 0  0
0 0  0
0 0  0
0 0  0
0 0  0
0 0  0
0 0  0
0 0  0
0 0  0
0 0  0
0 0  0
0 0  0
0 0  0
0 0  0
0 0  0
0 0  0
0 0  0
0 0  0
0 0  0
0 0  0
0 0  0
0 0  0
0 0  0
0 0  0
0 0  0
0 0  0
0 0  0
0 0  0
0 0  0
0 0  0
0 0  0
0 0  0
0 0  0
0 0  0
0 0  0
0 0  0
0 0  0
0 0  0
0 0  0
0 0  0
0 0  0
0 0  0
0 0  0
0 0  0
0 0  0
0 0  0
0 0  0
0 0  0
0 0  0
0 0  0
0 0  0
0 0  0
0 0  0
0 0  0
0 0  0
0 0  0
0 0  0
0 0  0
0 0  0
0 0  0
0 0  0
0 0  0
0 0  0
0 0  0
0 0  0
0 0  0
0 0  0
0 0  0
0 0  0
0 0  0
0 0  0
0 0  0
0 0  0
0 0  0
0 0  0
0 0  0
0 0  0
0 0  0
0 0  0
0 0  0
0 0  0
0 0  0
0 0  0
0 0  0
0 0  0
0 0  0
0 0  0
0 0  0
0 0  0
0 0  0
0 0  0
0 0  0
0 0  0
0 0  0
0 0  0
0 0  0
0 0  0
0 0  0
0 0  0
0 0  0
0 0  0
0 0  0
0 0  0
0 0  0
0 0  0
0 0  0
0 0  0
0 0  0
0 0  0
0 0  0
0 0  0
0 0  0
0 0  0
0 0  0
0 0  0
0 0  0
0 0  0
0 0  0
0 0  0
0 0  0
0 0  0
0 0  0
0 0  0
0 0  0
0 0  0
0 0  0
0 0  0
0 0  0
0 0  0
0 0  0
0 0  0
0 0  0
0 0  0
0 0  0
0 0  0
0 0  0
0 0  0
0 0  0
0 0  0
0 0  0
0 0  0
0 0  0
0 0  0
0 0  0
0 0  0
0 0  0
0 0  0
0 0  0
0 0  0
0 0  0
0 0  0
0 0  0
0 0  0
0 0  0
0 0  0
0 0  0
0 0  0
0 0  0
0 0  0
0 0  0
0 0  0
0 0  0
0 0  0
0 0  0
0 0  0
0 0  0
0 0  0
0 0  0
0 0  0
0 0  0
0 0  0
0 0  0
0 0  0
0 0  0
0 0  0
0 0  0
0 0  0
0 0  0
0 0  0
0 0  0
0 0  0
0 0  0
0 0  0
0 0  0
0 0  0
0 0  0
0 0  0
0 0  0
0 0  0
0 0  0
0 0  0
0 0  0
0 0  0
0 0  0
0 0  0
0 0  0
0 0  0
0 0  0
0 0  0
0 0  0
0 0  0
0 0  0
0 0  0
0 0  0
0 0  0
0 0  0
0 0  0
0 0  0
0 0  0
0 0  0
0 0  0
0 0  0
0 0  0
0 0  0
0 0  0
0 0  0
0 0  0
0 0  0
0 0  0
0 0  0
0 0  0
0 0  0
0 0  0
0 0  0
0 0  0
0 0  0
0 0  0
0 0  0
0 0  0
0 0  0
0 0  0
0 0  0
0 0  0
0 0  0
0 0  0
0 0  0
0 0  0
0 0  0
0 0  0
0 0  0

SCALARS pressure double 1
LOOKUP_TABLE default
2.73717
2.72407
2.70313
2.67367
2.6336
2.57972
2.50814
2.414
2.29227
2.1386
1.95083
1.73113
1.48788
1.23567
0.992479
0.774759
0.591211
0.437049
0.303754
0.16412
-0.0245962
0
0
0
0
0
0
0
0
0
0
0
0
0
0
0
0
0
0
0
0
0
0
0
0
0
0
0
0
0
2.51144
2.49864
2.47825
2.44922
2.40949
2.35576
2.28398
2.18925
2.06632
1.91065
1.72009
1.49715
1.25089
0.996865
0.754496
0.542149
0.371635
0.227978
0.12003
0.012606
0
0
0
0
0
0
0
0
0
0
0
0
0
0
0
0
0
0
0
0
0
0
0
0
0
0
0
0
0
0
2.27396
2.2617
2.24179
2.2133
2.17384
2.12038
2.04833
1.95258
1.82748
1.66809
1.4722
1.24291
0.990638
0.732334
0.488749
0.282511
0.145081
0.00952266
-0.0581354
0
0
0
0
0
0
0
0
0
0
0
0
0
0
0
0
0
0
0
0
0
0
0
0
0
0
0
0
0
0
0
2.02705
2.01552
1.99607
1.96813
1.92909
1.87585
1.80365
1.70671
1.57877
1.41444
1.21182
0.975761
0.718912
0.458771
0.209254
0.000113415
-0.0529854
0
0
0
0
0
0
0
0
0
0
0
0
0
0
0
0
0
0
0
0
0
0
0
0
0
0
0
0
0
0
0
0
0
1.77352
1.76254
1.74357
1.71604
1.67769
1.62494
1.55287
1.45496
1.32398
1.15406
0.944618
0.705248
0.455773
0.225379
-0.0559579
0
0
0
0
0
0
0
0
0
0
0
0
0
0
0
0
0
0
0
0
0
0
0
0
0
0
0
0
0
0
0
0
0
0
0
1.51642
1.50575
1.48722
1.46005
1.42251
1.3708
1.29962
1.2015
1.06788
0.892001
0.675668
0.437475
0.207835
0.119843
0
0
0
0
0
0
0
0
0
0
0
0
0
0
0
0
0
0
0
0
0
0
0
0
0
0
0
0
0
0
0
0
0
0
0
0
1.25923
1.2486
1.23012
1.2032
1.16661
1.11681
1.048
0.95156
0.81691
0.635587
0.411937
0.173598
-0.0418429
0
0
0
0
0
0
0
0
0
0
0
0
0
0
0
0
0
0
0
0
0
0
0
0
0
0
0
0
0
0
0
0
0
0
0
0
0
1.00565
0.994778
0.975538
0.948303
0.912862
0.866242
0.802238
0.7112
0.580123
0.398115
0.174058
-0.0254
0
0
0
0
0
0
0
0
0
0
0
0
0
0
0
0
0
0
0
0
0
0
0
0
0
0
0
0
0
0
0
0
0
0
0
0
0
0
0.759681
0.747958
0.72672
0.697467
0.663272
0.621589
0.566015
0.48636
0.367555
0.194779
-0.015458
0
0
0
0
0
0
0
0
0
0
0
0
0
0
0
0
0
0
0
0
0
0
0
0
0
0
0
0
0
0
0
0
0
0
0
0
0
0
0
0.525571
0.512257
0.486865
0.450859
0.418178
0.384245
0.341753
0.281487
0.189176
0.0752409
0
0
0
0
0
0
0
0
0
0
0
0
0
0
0
0
0
0
0
0
0
0
0
0
0
0
0
0
0
0
0
0
0
0
0
0
0
0
0
0
0.307655
0.292729
0.26117
0.203211
0.175397
0.154563
0.13002
0.0977059
0.0243214
-0.0882674
0
0
0
0
0
0
0
0
0
0
0
0
0
0
0
0
0
0
0
0
0
0
0
0
0
0
0
0
0
0
0
0
0
0
0
0
0
0
0
0
0.109621
0.0955689
0.0673443
-0.0381927
-0.0377022
-0.0333928
-0.0354871
-0.00643908
-0.0563937
0
0
0
0
0
0
0
0
0
0
0
0
0
0
0
0
0
0
0
0
0
0
0
0
0
0
0
0
0
0
0
0
0
0
0
0
0
0
0
0
0
-0.0367752
-0.049812
-0.00362861
0
0
0
0
0
0
0
0
0
0
0
0
0
0
0
0
0
0
0
0
0
0
0
0
0
0
0
0
0
0
0
0
0
0
0
0
0
0
0
0
0
0
0
0
0
0
0
0
0
0
0
0
0
0
0
0
0
0
0
0
0
0
0
0
0
0
0
0
0
0
0
0
0
0
0
0
0
0
0
0
0
0
0
0
0
0
0
0
0
0
0
0
0
0
0
0
0
0
0
0
0
0
0
0
0
0
0
0
0
0
0
0
0
0
0
0
0
0
0
0
0
0
0
0
0
0
0
0
0
0
0
0
0
0
0
0
0
0
0
0
0
0
0
0
0
0
0
0
0
0
0
0
0
0
0
0
0
0
0
0
0
0
0
0
0
0
0
0
0
0
0
0
0
0
0
0
0
0
0
0
0
0
0
0
0
0
0
0
0
0
0
0
0
0
0
0
0
0
0
0
0
0
0
0
0
0
0
0
0
0
0
0
0
0
0
0
0
0
0
0
0
0
0
0
0
0
0
0
0
0
0
0
0
0
0
0
0
0
0
0
0
0
0
0
0
0
0
0
0
0
0
0
0
0
0
0
0
0
0
0
0
0
0
0
0
0
0
0
0
0
0
0
0
0
0
0
0
0
0
0
0
0
0
0
0
0
0
0
0
0
0
0
0
0
0
0
0
0
0
0
0
0
0
0
0
0
0
0
0
0
0
0
0
0
0
0
0
0
0
0
0
0
0
0
0
0
0
0
0
0
0
0
0
0
0
0
0
0
0
0
0
0
0
0
0
0
0
0
0
0
0
0
0
0
0
0
0
0
0
0
0
0
0
0
0
0
0
0
0
0
0
0
0
0
0
0
0
0
0
0
0
0
0
0
0
0
0
0
0
0
0
0
0
0
0
0
0
SCALARS rhs double 1
LOOKUP_TABLE default
-5.70142
-5.69033
-5.70994
-5.76641
-5.84931
-5.9594
-6.09468
-6.2473
-6.39787
-6.51076
-6.5341
-6.41398
-6.13144
-5.73197
-5.30503
-4.95623
-4.75244
-4.70413
-4.75137
-5.01514
4.33255
0
0
0
0
0
0
0
0
0
0
0
0
0
0
0
0
0
0
0
0
0
0
0
0
0
0
0
0
0
-0.470346
-0.466855
-0.488052
-0.544288
-0.623253
-0.7275
-0.854955
-0.997395
-1.13614
-1.23498
-1.23882
-1.08983
-0.776303
-0.354198
0.0540541
0.36774
0.495242
0.656533
0.151247
6.23641
0
0
0
0
0
0
0
0
0
0
0
0
0
0
0
0
0
0
0
0
0
0
0
0
0
0
0
0
0
0
-0.410588
-0.412374
-0.434938
-0.492744
-0.57472
-0.682024
-0.813952
-0.961458
-1.10172
-1.18846
-1.14705
-0.899511
-0.440247
0.139382
0.586445
1.14776
0.756658
7.98476
4.33255
0
0
0
0
0
0
0
0
0
0
0
0
0
0
0
0
0
0
0
0
0
0
0
0
0
0
0
0
0
0
0
-0.347489
-0.351565
-0.37664
-0.434277
-0.518103
-0.628988
-0.766161
-0.920104
-1.06151
-1.12647
-1.00826
-0.606515
0.128434
1.26552
1.36171
9.44051
4.33255
0
0
0
0
0
0
0
0
0
0
0
0
0
0
0
0
0
0
0
0
0
0
0
0
0
0
0
0
0
0
0
0
0
-0.273975
-0.278215
-0.305236
-0.363077
-0.447729
-0.562271
-0.705998
-0.867665
-1.00764
-1.03262
-0.795039
-0.187863
0.852073
1.91677
6.23641
0
0
0
0
0
0
0
0
0
0
0
0
0
0
0
0
0
0
0
0
0
0
0
0
0
0
0
0
0
0
0
0
0
0
0
-0.193504
-0.197466
-0.224343
-0.281733
-0.365932
-0.482734
-0.632778
-0.801686
-0.930268
-0.873475
-0.420869
0.305409
3.49126
2.29838
0
0
0
0
0
0
0
0
0
0
0
0
0
0
0
0
0
0
0
0
0
0
0
0
0
0
0
0
0
0
0
0
0
0
0
0
-0.110247
-0.114274
-0.139544
-0.193776
-0.275221
-0.391399
-0.545091
-0.718384
-0.816057
-0.589649
0.272918
2.18724
4.33255
0
0
0
0
0
0
0
0
0
0
0
0
0
0
0
0
0
0
0
0
0
0
0
0
0
0
0
0
0
0
0
0
0
0
0
0
0
-0.0304357
-0.032994
-0.0564504
-0.104813
-0.178049
-0.287557
-0.439948
-0.616221
-0.672692
-0.203892
1.81712
9.44051
0
0
0
0
0
0
0
0
0
0
0
0
0
0
0
0
0
0
0
0
0
0
0
0
0
0
0
0
0
0
0
0
0
0
0
0
0
0
0.0399101
0.0398419
0.0196264
-0.0199882
-0.0777963
-0.167686
-0.307631
-0.483842
-0.499912
1.15175
20.7243
0
0
0
0
0
0
0
0
0
0
0
0
0
0
0
0
0
0
0
0
0
0
0
0
0
0
0
0
0
0
0
0
0
0
0
0
0
0
0
0.0960879
0.0986643
0.0835745
0.0540387
0.0193556
-0.0257179
-0.135707
-0.278549
-0.207791
7.38431
3.2041
0
0
0
0
0
0
0
0
0
0
0
0
0
0
0
0
0
0
0
0
0
0
0
0
0
0
0
0
0
0
0
0
0
0
0
0
0
0
0
0.135388
0.137851
0.129803
0.902653
0.911253
0.944141
0.957111
0.960199
1.12007
35.7941
0
0
0
0
0
0
0
0
0
0
0
0
0
0
0
0
0
0
0
0
0
0
0
0
0
0
0
0
0
0
0
0
0
0
0
0
0
0
0
0
0.941646
0.934377
1.1298
3.10111
3.24333
5.24509
7.04351
7.13108
8.67562
33.2233
0
0
0
0
0
0
0
0
0
0
0
0
0
0
0
0
0
0
0
0
0
0
0
0
0
0
0
0
0
0
0
0
0
0
0
0
0
0
0
0
8.71388
9.82855
9.83715
7.65861
8.9401
7.02241
6.34758
6.44313
5.90605
26.1906
0
0
0
0
0
0
0
0
0
0
0
0
0
0
0
0
0
0
0
0
0
0
0
0
0
0
0
0
0
0
0
0
0
0
0
0
0
0
0
0
7.061
5.55892
5.71513
6.83869
5.56628
5.6724
5.42452
5.43401
4.26976
17.1298
0
0
0
0
0
0
0
0
0
0
0
0
0
0
0
0
0
0
0
0
0
0
0
0
0
0
0
0
0
0
0
0
0
0
0
0
0
0
0
0
6.55202
6.55536
6.55982
5.31204
5.40986
6.30896
5.08555
5.09432
5.2091
10.3371
0
0
0
0
0
0
0
0
0
0
0
0
0
0
0
0
0
0
0
0
0
0
0
0
0
0
0
0
0
0
0
0
0
0
0
0
0
0
0
0
5.52783
5.53996
5.54196
5.54121
5.54439
4.52522
5.16545
5.22779
16.4546
0
0
0
0
0
0
0
0
0
0
0
0
0
0
0
0
0
0
0
0
0
0
0
0
0
0
0
0
0
0
0
0
0
0
0
0
0
0
0
0
0
3.60674
3.66202
3.98033
3.98143
3.98244
3.98396
3.23505
3.31189
11.5415
0
0
0
0
0
0
0
0
0
0
0
0
0
0
0
0
0
0
0
0
0
0
0
0
0
0
0
0
0
0
0
0
0
0
0
0
0
0
0
0
0
6.01719
6.36025
5.75447
5.75462
5.75506
5.75536
5.75588
5.76119
8.30564
0
0
0
0
0
0
0
0
0
0
0
0
0
0
0
0
0
0
0
0
0
0
0
0
0
0
0
0
0
0
0
0
0
0
0
0
0
0
0
0
0
3.29611
2.74112
2.74112
2.74112
2.74112
2.74112
2.74112
2.74112
2.74112
0
0
0
0
0
0
0
0
0
0
0
0
0
0
0
0
0
0
0
0
0
0
0
0
0
0
0
0
0
0
0
0
0
0
0
0
0
0
0
0
0
0
0
0
0
0
0
0
0
0
0
0
0
0
0
0
0
0
0
0
0
0
0
0
0
0
0
0
0
0
0
0
0
0
0
0
0
0
0
0
0
0
0
0
0
0
0
0
0
0
0
