# vtk DataFile Version 4.0
Nusif Fluid VTK output
ASCII
DATASET STRUCTURED_POINTS
DIMENSIONS 50 20 1
ORIGIN 0 0 0 
SPACING 0.2 0.2 1
POINT_DATA 1000 

VECTORS velocity double
0.0539513 -0.0593477  0
0.162808 -0.0601603  0
0.274163 -0.0617785  0
0.389448 -0.0642421  0
0.510263 -0.0675004  0
0.638309 -0.0714045  0
0.775088 -0.0759872  0
0.921519 -0.0808237  0
1.07738 -0.0854043  0
1.24086 -0.088309  0
1.40709 -0.0879639  0
1.56713 -0.0820573  0
1.70858 -0.0692536  0
1.81818 -0.0501622  0
1.88554 -0.0269444  0
1.91163 -0.00887277  0
1.90293 0.00786886  0
1.89022 0  0
0.945109 0  0
0 0  0
0 0  0
0 0  0
0 0  0
0 0  0
0 0  0
0 0  0
0 0  0
0 0  0
0 0  0
0 0  0
0 0  0
0 0  0
0 0  0
0 0  0
0 0  0
0 0  0
0 0  0
0 0  0
0 0  0
0 0  0
0 0  0
0 0  0
0 0  0
0 0  0
0 0  0
0 0  0
0 0  0
0 0  0
0 0  0
0 0  0
0.0530979 -0.177039  0
0.160264 -0.179403  0
0.269917 -0.184168  0
0.383366 -0.19138  0
0.502192 -0.200834  0
0.628124 -0.212547  0
0.762575 -0.226177  0
0.90627 -0.240563  0
1.05916 -0.254172  0
1.21936 -0.262867  0
1.38175 -0.261448  0
1.53659 -0.242885  0
1.6706 -0.203243  0
1.7705 -0.145029  0
1.82238 -0.0706946  0
1.84011 -0.0283329  0
1.84585 0.0157377  0
1.86803 0.00786886  0
0.945109 0  0
0 0  0
0 0  0
0 0  0
0 0  0
0 0  0
0 0  0
0 0  0
0 0  0
0 0  0
0 0  0
0 0  0
0 0  0
0 0  0
0 0  0
0 0  0
0 0  0
0 0  0
0 0  0
0 0  0
0 0  0
0 0  0
0 0  0
0 0  0
0 0  0
0 0  0
0 0  0
0 0  0
0 0  0
0 0  0
0 0  0
0 0  0
0.0514876 -0.292106  0
0.155428 -0.295861  0
0.261779 -0.303522  0
0.371713 -0.315047  0
0.486816 -0.330454  0
0.608712 -0.349756  0
0.738686 -0.372205  0
0.877394 -0.396136  0
1.02516 -0.418511  0
1.17989 -0.432735  0
1.33548 -0.428951  0
1.48009 -0.394255  0
1.59853 -0.323794  0
1.67838 -0.223548  0
1.70177 -0.0819306  0
1.6962 -0.0389202  0
1.77102 -0.0115913  0
0.922923 0.00786886  0
0 0  0
0 0  0
0 0  0
0 0  0
0 0  0
0 0  0
0 0  0
0 0  0
0 0  0
0 0  0
0 0  0
0 0  0
0 0  0
0 0  0
0 0  0
0 0  0
0 0  0
0 0  0
0 0  0
0 0  0
0 0  0
0 0  0
0 0  0
0 0  0
0 0  0
0 0  0
0 0  0
0 0  0
0 0  0
0 0  0
0 0  0
0 0  0
0.0492231 -0.403042  0
0.148566 -0.408055  0
0.250077 -0.418464  0
0.35483 -0.434202  0
0.464558 -0.455489  0
0.580576 -0.48205  0
0.704104 -0.512836  0
0.836182 -0.54601  0
0.976886 -0.576737  0
1.12405 -0.595934  0
1.27069 -0.587595  0
1.40077 -0.529619  0
1.49066 -0.416176  0
1.52244 -0.257363  0
1.5906 -0.166862  0
1.67748 -0.0194601  0
0.848102 -0.0194601  0
0 0  0
0 0  0
0 0  0
0 0  0
0 0  0
0 0  0
0 0  0
0 0  0
0 0  0
0 0  0
0 0  0
0 0  0
0 0  0
0 0  0
0 0  0
0 0  0
0 0  0
0 0  0
0 0  0
0 0  0
0 0  0
0 0  0
0 0  0
0 0  0
0 0  0
0 0  0
0 0  0
0 0  0
0 0  0
0 0  0
0 0  0
0 0  0
0 0  0
0.0463528 -0.508451  0
0.139664 -0.514935  0
0.234724 -0.528  0
0.333043 -0.547671  0
0.435915 -0.574242  0
0.544482 -0.607385  0
0.65991 -0.645935  0
0.78311 -0.687747  0
0.914477 -0.726512  0
1.05234 -0.750406  0
1.18965 -0.736367  0
1.30816 -0.648586  0
1.35952 -0.452741  0
1.44098 -0.355052  0
0.761218 -0.128681  0
0 0  0
0 0  0
0 0  0
0 0  0
0 0  0
0 0  0
0 0  0
0 0  0
0 0  0
0 0  0
0 0  0
0 0  0
0 0  0
0 0  0
0 0  0
0 0  0
0 0  0
0 0  0
0 0  0
0 0  0
0 0  0
0 0  0
0 0  0
0 0  0
0 0  0
0 0  0
0 0  0
0 0  0
0 0  0
0 0  0
0 0  0
0 0  0
0 0  0
0 0  0
0 0  0
0.0426724 -0.60752  0
0.128667 -0.615295  0
0.216482 -0.630476  0
0.307172 -0.653615  0
0.401595 -0.684878  0
0.500894 -0.723862  0
0.606245 -0.769509  0
0.71873 -0.819235  0
0.838469 -0.865449  0
0.963043 -0.893132  0
1.08583 -0.873049  0
1.20207 -0.761275  0
1.30904 -0.498136  0
0.679761 -0.226371  0
0 0  0
0 0  0
0 0  0
0 0  0
0 0  0
0 0  0
0 0  0
0 0  0
0 0  0
0 0  0
0 0  0
0 0  0
0 0  0
0 0  0
0 0  0
0 0  0
0 0  0
0 0  0
0 0  0
0 0  0
0 0  0
0 0  0
0 0  0
0 0  0
0 0  0
0 0  0
0 0  0
0 0  0
0 0  0
0 0  0
0 0  0
0 0  0
0 0  0
0 0  0
0 0  0
0 0  0
0.0386112 -0.699008  0
0.116397 -0.707626  0
0.195696 -0.724606  0
0.277261 -0.750871  0
0.361956 -0.786028  0
0.450806 -0.830253  0
0.544772 -0.882038  0
0.644622 -0.938474  0
0.749588 -0.990276  0
0.85482 -1.01752  0
0.945446 -0.981322  0
0.984327 -0.817764  0
0.492163 -0.680648  0
0 0  0
0 0  0
0 0  0
0 0  0
0 0  0
0 0  0
0 0  0
0 0  0
0 0  0
0 0  0
0 0  0
0 0  0
0 0  0
0 0  0
0 0  0
0 0  0
0 0  0
0 0  0
0 0  0
0 0  0
0 0  0
0 0  0
0 0  0
0 0  0
0 0  0
0 0  0
0 0  0
0 0  0
0 0  0
0 0  0
0 0  0
0 0  0
0 0  0
0 0  0
0 0  0
0 0  0
0 0  0
0.0341086 -0.78178  0
0.1028 -0.79105  0
0.172711 -0.809725  0
0.244318 -0.838304  0
0.318185 -0.876678  0
0.395392 -0.925084  0
0.476745 -0.981934  0
0.5627 -1.04375  0
0.652601 -1.09921  0
0.741341 -1.12197  0
0.822355 -1.06298  0
0.922318 -0.856944  0
0.492163 -0.408882  0
0 0  0
0 0  0
0 0  0
0 0  0
0 0  0
0 0  0
0 0  0
0 0  0
0 0  0
0 0  0
0 0  0
0 0  0
0 0  0
0 0  0
0 0  0
0 0  0
0 0  0
0 0  0
0 0  0
0 0  0
0 0  0
0 0  0
0 0  0
0 0  0
0 0  0
0 0  0
0 0  0
0 0  0
0 0  0
0 0  0
0 0  0
0 0  0
0 0  0
0 0  0
0 0  0
0 0  0
0 0  0
0.029342 -0.85525  0
0.0883786 -0.864954  0
0.14822 -0.884785  0
0.208982 -0.914964  0
0.271402 -0.955881  0
0.336212 -1.00734  0
0.403847 -1.06811  0
0.475171 -1.13426  0
0.550181 -1.19288  0
0.621998 -1.2082  0
0.655502 -1.10093  0
0.327751 -0.998526  0
0 0  0
0 0  0
0 0  0
0 0  0
0 0  0
0 0  0
0 0  0
0 0  0
0 0  0
0 0  0
0 0  0
0 0  0
0 0  0
0 0  0
0 0  0
0 0  0
0 0  0
0 0  0
0 0  0
0 0  0
0 0  0
0 0  0
0 0  0
0 0  0
0 0  0
0 0  0
0 0  0
0 0  0
0 0  0
0 0  0
0 0  0
0 0  0
0 0  0
0 0  0
0 0  0
0 0  0
0 0  0
0 0  0
0.0244687 -0.918948  0
0.0736392 -0.928927  0
0.123048 -0.94941  0
0.172794 -0.980456  0
0.223351 -1.02282  0
0.275006 -1.07615  0
0.328146 -1.13951  0
0.38378 -1.20923  0
0.444071 -1.27254  0
0.517667 -1.28847  0
0.607553 -1.12911  0
0.327751 -0.550465  0
0 0  0
0 0  0
0 0  0
0 0  0
0 0  0
0 0  0
0 0  0
0 0  0
0 0  0
0 0  0
0 0  0
0 0  0
0 0  0
0 0  0
0 0  0
0 0  0
0 0  0
0 0  0
0 0  0
0 0  0
0 0  0
0 0  0
0 0  0
0 0  0
0 0  0
0 0  0
0 0  0
0 0  0
0 0  0
0 0  0
0 0  0
0 0  0
0 0  0
0 0  0
0 0  0
0 0  0
0 0  0
0 0  0
0.0197957 -0.972962  0
0.0593646 -0.983075  0
0.0988102 -1.00364  0
0.137851 -1.03451  0
0.176555 -1.0774  0
0.215162 -1.13122  0
0.25311 -1.19492  0
0.290403 -1.26613  0
0.326697 -1.33157  0
0.365427 -1.35146  0
0.193239 -1.20015  0
0 0  0
0 0  0
0 0  0
0 0  0
0 0  0
0 0  0
0 0  0
0 0  0
0 0  0
0 0  0
0 0  0
0 0  0
0 0  0
0 0  0
0 0  0
0 0  0
0 0  0
0 0  0
0 0  0
0 0  0
0 0  0
0 0  0
0 0  0
0 0  0
0 0  0
0 0  0
0 0  0
0 0  0
0 0  0
0 0  0
0 0  0
0 0  0
0 0  0
0 0  0
0 0  0
0 0  0
0 0  0
0 0  0
0 0  0
0.0156938 -1.01814  0
0.0470878 -1.02837  0
0.0783616 -1.04857  0
0.107717 -1.07732  0
0.13534 -1.12031  0
0.162391 -1.17335  0
0.186737 -1.23446  0
0.207832 -1.30437  0
0.225737 -1.36688  0
0.245339 -1.38416  0
0.128497 -1.27373  0
0 0  0
0 0  0
0 0  0
0 0  0
0 0  0
0 0  0
0 0  0
0 0  0
0 0  0
0 0  0
0 0  0
0 0  0
0 0  0
0 0  0
0 0  0
0 0  0
0 0  0
0 0  0
0 0  0
0 0  0
0 0  0
0 0  0
0 0  0
0 0  0
0 0  0
0 0  0
0 0  0
0 0  0
0 0  0
0 0  0
0 0  0
0 0  0
0 0  0
0 0  0
0 0  0
0 0  0
0 0  0
0 0  0
0 0  0
0.012917 -1.05647  0
0.0390726 -1.06705  0
0.0653197 -1.0868  0
0.0880856 -1.11055  0
0.107858 -1.15386  0
0.126676 -1.20501  0
0.142096 -1.26193  0
0.152453 -1.32775  0
0.157092 -1.38541  0
0.161797 -1.39963  0
0.0828018 -1.34052  0
0 0  0
0 0  0
0 0  0
0 0  0
0 0  0
0 0  0
0 0  0
0 0  0
0 0  0
0 0  0
0 0  0
0 0  0
0 0  0
0 0  0
0 0  0
0 0  0
0 0  0
0 0  0
0 0  0
0 0  0
0 0  0
0 0  0
0 0  0
0 0  0
0 0  0
0 0  0
0 0  0
0 0  0
0 0  0
0 0  0
0 0  0
0 0  0
0 0  0
0 0  0
0 0  0
0 0  0
0 0  0
0 0  0
0 0  0
0.0134688 -1.08773  0
0.0407386 -1.09892  0
0.0634113 -1.11351  0
0.0881201 -1.14099  0
0.11093 -1.17569  0
0.126581 -1.22733  0
0.13984 -1.27798  0
0.144709 -1.33663  0
0.141889 -1.38805  0
0.13878 -1.40343  0
0.0693899 -1.39002  0
0 0  0
0 0  0
0 0  0
0 0  0
0 0  0
0 0  0
0 0  0
0 0  0
0 0  0
0 0  0
0 0  0
0 0  0
0 0  0
0 0  0
0 0  0
0 0  0
0 0  0
0 0  0
0 0  0
0 0  0
0 0  0
0 0  0
0 0  0
0 0  0
0 0  0
0 0  0
0 0  0
0 0  0
0 0  0
0 0  0
0 0  0
0 0  0
0 0  0
0 0  0
0 0  0
0 0  0
0 0  0
0 0  0
0 0  0
0.0192296 -0.550601  0
0.0513291 -0.556362  0
0.0854643 -0.561191  0
0.118261 -0.578415  0
0.150517 -0.591332  0
0.176526 -0.618002  0
0.190298 -0.641277  0
0.1959 -0.66846  0
0.175146 -0.692469  0
0.148028 -0.701717  0
0.0693899 -0.701717  0
0 0  0
0 0  0
0 0  0
0 0  0
0 0  0
0 0  0
0 0  0
0 0  0
0 0  0
0 0  0
0 0  0
0 0  0
0 0  0
0 0  0
0 0  0
0 0  0
0 0  0
0 0  0
0 0  0
0 0  0
0 0  0
0 0  0
0 0  0
0 0  0
0 0  0
0 0  0
0 0  0
0 0  0
0 0  0
0 0  0
0 0  0
0 0  0
0 0  0
0 0  0
0 0  0
0 0  0
0 0  0
0 0  0
0 0  0
0 0  0
0 0  0
0 0  0
0 0  0
0 0  0
0 0  0
0 0  0
0 0  0
0 0  0
0 0  0
0 0  0
0 0  0
0 0  0
0 0  0
0 0  0
0 0  0
0 0  0
0 0  0
0 0  0
0 0  0
0 0  0
0 0  0
0 0  0
0 0  0
0 0  0
0 0  0
0 0  0
0 0  0
0 0  0
0 0  0
0 0  0
0 0  0
0 0  0
0 0  0
0 0  0
0 0  0
0 0  0
0 0  0
0 0  0
0 0  0
0 0  0
0 0  0
0 0  0
0 0  0
0 0  0
0 0  0
0 0  0
0 0  0
0 0  0
0 0  0
0 0  0
0 0  0
0 0  0
0 0  0
0 0  0
0 0  0
0 0  0
0 0  0
0 0  0
0 0  0
0 0  0
0 0  0
0 0  0
0 0  0
0 0  0
0 0  0
0 0  0
0 0  0
0 0  0
0 0  0
0 0  0
0 0  0
0 0  0
0 0  0
0 0  0
0 0  0
0 0  0
0 0  0
0 0  0
0 0  0
0 0  0
0 0  0
0 0  0
0 0  0
0 0  0
0 0  0
0 0  0
0 0  0
0 0  0
0 0  0
0 0  0
0 0  0
0 0  0
0 0  0
0 0  0
0 0  0
0 0  0
0 0  0
0 0  0
0 0  0
0 0  0
0 0  0
0 0  0
0 0  0
0 0  0
0 0  0
0 0  0
0 0  0
0 0  0
0 0  0
0 0  0
0 0  0
0 0  0
0 0  0
0 0  0
0 0  0
0 0  0
0 0  0
0 0  0
0 0  0
0 0  0
0 0  0
0 0  0
0 0  0
0 0  0
0 0  0
0 0  0
0 0  0
0 0  0
0 0  0
0 0  0
0 0  0
0 0  0
0 0  0
0 0  0
0 0  0
0 0  0
0 0  0
0 0  0
0 0  0
0 0  0
0 0  0
0 0  0
0 0  0
0 0  0
0 0  0
0 0  0
0 0  0
0 0  0
0 0  0
0 0  0
0 0  0
0 0  0
0 0  0
0 0  0
0 0  0
0 0  0
0 0  0
0 0  0
0 0  0
0 0  0
0 0  0
0 0  0
0 0  0
0 0  0
0 0  0
0 0  0
0 0  0
0 0  0
0 0  0
0 0  0
0 0  0
0 0  0
0 0  0
0 0  0
0 0  0
0 0  0
0 0  0
0 0  0
0 0  0
0 0  0
0 0  0
0 0  0
0 0  0
0 0  0
0 0  0
0 0  0
0 0  0
0 0  0
0 0  0
0 0  0
0 0  0
0 0  0
0 0  0
0 0  0
0 0  0
0 0  0
0 0  0
0 0  0
0 0  0
0 0  0
0 0  0
0 0  0
0 0  0
0 0  0
0 0  0
0 0  0
0 0  0
0 0  0
0 0  0
0 0  0
0 0  0
0 0  0
0 0  0
0 0  0
0 0  0
0 0  0
0 0  0
0 0  0
0 0  0
0 0  0
0 0  0
0 0  0
0 0  0
0 0  0
0 0  0
0 0  0
0 0  0
0 0  0
0 0  0
0 0  0
0 0  0
0 0  0
0 0  0
0 0  0
0 0  0
0 0  0
0 0  0
0 0  0
0 0  0
0 0  0
0 0  0
0 0  0
0 0  0
0 0  0
0 0  0
0 0  0
0 0  0
0 0  0
0 0  0

SCALARS pressure double 1
LOOKUP_TABLE default
2.88998
2.88108
2.85633
2.81429
2.75251
2.66657
2.55517
2.4111
2.22893
2.00948
1.75077
1.46054
1.15507
0.859547
0.599553
0.390192
0.199077
-0.0182062
0
0
0
0
0
0
0
0
0
0
0
0
0
0
0
0
0
0
0
0
0
0
0
0
0
0
0
0
0
0
0
0
2.68122
2.67232
2.64747
2.60479
2.54085
2.45467
2.33999
2.19174
2.0071
1.7817
1.51654
1.21842
0.905684
0.604209
0.344937
0.171844
0.0181951
0
0
0
0
0
0
0
0
0
0
0
0
0
0
0
0
0
0
0
0
0
0
0
0
0
0
0
0
0
0
0
0
0
2.46419
2.45518
2.42981
2.38538
2.32021
2.23243
2.11441
1.96092
1.77143
1.53724
1.26025
0.947463
0.619771
0.302934
0.0191201
-0.0577338
0
0
0
0
0
0
0
0
0
0
0
0
0
0
0
0
0
0
0
0
0
0
0
0
0
0
0
0
0
0
0
0
0
0
2.23989
2.23013
2.20335
2.1576
2.09316
2.00314
1.88273
1.7263
1.52978
1.28547
0.993639
0.662707
0.319108
-0.00464371
0
0
0
0
0
0
0
0
0
0
0
0
0
0
0
0
0
0
0
0
0
0
0
0
0
0
0
0
0
0
0
0
0
0
0
0
2.00873
1.99846
1.97217
1.92885
1.86435
1.77388
1.64982
1.48975
1.28606
1.03256
0.726251
0.377476
0.0274587
0
0
0
0
0
0
0
0
0
0
0
0
0
0
0
0
0
0
0
0
0
0
0
0
0
0
0
0
0
0
0
0
0
0
0
0
0
1.77498
1.76689
1.74224
1.69879
1.63284
1.54107
1.41671
1.25628
1.04981
0.791812
0.477481
0.106308
0
0
0
0
0
0
0
0
0
0
0
0
0
0
0
0
0
0
0
0
0
0
0
0
0
0
0
0
0
0
0
0
0
0
0
0
0
0
1.54337
1.53423
1.50898
1.46646
1.40301
1.31362
1.19225
1.03396
0.828211
0.571865
0.270191
-0.0153963
0
0
0
0
0
0
0
0
0
0
0
0
0
0
0
0
0
0
0
0
0
0
0
0
0
0
0
0
0
0
0
0
0
0
0
0
0
0
1.31102
1.30185
1.27865
1.2386
1.17766
1.09364
0.978213
0.826161
0.626865
0.374969
0.0718399
0
0
0
0
0
0
0
0
0
0
0
0
0
0
0
0
0
0
0
0
0
0
0
0
0
0
0
0
0
0
0
0
0
0
0
0
0
0
0
1.08049
1.07209
1.05099
1.01404
0.960416
0.883853
0.778665
0.637943
0.451763
0.215626
-0.0282497
0
0
0
0
0
0
0
0
0
0
0
0
0
0
0
0
0
0
0
0
0
0
0
0
0
0
0
0
0
0
0
0
0
0
0
0
0
0
0
0.852697
0.845376
0.826792
0.796039
0.750284
0.68495
0.594761
0.47225
0.30577
0.0794707
0
0
0
0
0
0
0
0
0
0
0
0
0
0
0
0
0
0
0
0
0
0
0
0
0
0
0
0
0
0
0
0
0
0
0
0
0
0
0
0
0.627494
0.621274
0.607035
0.583445
0.547585
0.496595
0.425996
0.330605
0.202828
0.0424783
0
0
0
0
0
0
0
0
0
0
0
0
0
0
0
0
0
0
0
0
0
0
0
0
0
0
0
0
0
0
0
0
0
0
0
0
0
0
0
0
0.40409
0.399702
0.390314
0.374847
0.350554
0.316358
0.268787
0.205426
0.121367
0.0197564
0
0
0
0
0
0
0
0
0
0
0
0
0
0
0
0
0
0
0
0
0
0
0
0
0
0
0
0
0
0
0
0
0
0
0
0
0
0
0
0
0.181398
0.178964
0.174188
0.169007
0.156479
0.140706
0.117749
0.0896304
0.0515693
0.00849519
0
0
0
0
0
0
0
0
0
0
0
0
0
0
0
0
0
0
0
0
0
0
0
0
0
0
0
0
0
0
0
0
0
0
0
0
0
0
0
0
-0.0233086
-0.0248059
-0.026977
-0.0141975
-0.019152
-0.0126587
-0.0125913
-0.000435002
0.0078909
-0.0222461
0
0
0
0
0
0
0
0
0
0
0
0
0
0
0
0
0
0
0
0
0
0
0
0
0
0
0
0
0
0
0
0
0
0
0
0
0
0
0
0
0
0
0
0
0
0
0
0
0
0
0
0
0
0
0
0
0
0
0
0
0
0
0
0
0
0
0
0
0
0
0
0
0
0
0
0
0
0
0
0
0
0
0
0
0
0
0
0
0
0
0
0
0
0
0
0
0
0
0
0
0
0
0
0
0
0
0
0
0
0
0
0
0
0
0
0
0
0
0
0
0
0
0
0
0
0
0
0
0
0
0
0
0
0
0
0
0
0
0
0
0
0
0
0
0
0
0
0
0
0
0
0
0
0
0
0
0
0
0
0
0
0
0
0
0
0
0
0
0
0
0
0
0
0
0
0
0
0
0
0
0
0
0
0
0
0
0
0
0
0
0
0
0
0
0
0
0
0
0
0
0
0
0
0
0
0
0
0
0
0
0
0
0
0
0
0
0
0
0
0
0
0
0
0
0
0
0
0
0
0
0
0
0
0
0
0
0
0
0
0
0
0
0
0
0
0
0
0
0
0
0
0
0
0
0
0
0
0
0
0
0
0
0
0
0
0
0
0
0
0
0
0
0
0
0
0
0
0
0
0
0
0
0
0
0
0
0
0
0
0
0
0
0
0
0
0
0
0
0
0
0
0
0
0
0
0
0
0
0
0
0
0
0
0
0
0
0
0
0
0
0
0
0
0
0
0
0
0
0
0
0
0
0
0
0
0
0
0
0
0
SCALARS rhs double 1
LOOKUP_TABLE default
-5.57767
-5.71591
-5.77319
-5.86969
-6.06232
-6.05596
-6.30155
-6.50032
-6.57891
-6.70674
-6.69778
-6.44983
-6.00885
-5.50003
-5.10636
-5.00196
-5.1751
2.46645
0
0
0
0
0
0
0
0
0
0
0
0
0
0
0
0
0
0
0
0
0
0
0
0
0
0
0
0
0
0
0
0
-0.527441
-0.649295
-0.708568
-0.824288
-0.785426
-0.950324
-1.06589
-1.15948
-1.3242
-1.37725
-1.32865
-1.06837
-0.597713
-0.0858996
0.38446
0.205575
2.46645
0
0
0
0
0
0
0
0
0
0
0
0
0
0
0
0
0
0
0
0
0
0
0
0
0
0
0
0
0
0
0
0
0
-0.502737
-0.624403
-0.695099
-0.698092
-0.692143
-0.879467
-0.996756
-1.05464
-1.24804
-1.31113
-1.17319
-0.763835
-0.118112
0.668851
6.15556
2.46645
0
0
0
0
0
0
0
0
0
0
0
0
0
0
0
0
0
0
0
0
0
0
0
0
0
0
0
0
0
0
0
0
0
0
-0.449708
-0.552961
-0.580897
-0.534664
-0.690654
-0.839125
-0.950192
-1.09164
-1.21995
-1.23272
-0.956001
-0.27925
0.737466
6.15556
0
0
0
0
0
0
0
0
0
0
0
0
0
0
0
0
0
0
0
0
0
0
0
0
0
0
0
0
0
0
0
0
0
0
0
0
-0.319282
-0.460385
-0.490152
-0.565607
-0.716685
-0.865351
-0.887049
-1.00941
-1.05623
-0.981942
-0.625355
0.323904
6.15556
0
0
0
0
0
0
0
0
0
0
0
0
0
0
0
0
0
0
0
0
0
0
0
0
0
0
0
0
0
0
0
0
0
0
0
0
0
-0.235985
-0.473027
-0.501779
-0.572172
-0.617375
-0.689961
-0.723145
-0.848553
-0.929655
-0.872982
-0.37713
9.48163
0
0
0
0
0
0
0
0
0
0
0
0
0
0
0
0
0
0
0
0
0
0
0
0
0
0
0
0
0
0
0
0
0
0
0
0
0
0
-0.285154
-0.396539
-0.361529
-0.43734
-0.513915
-0.607675
-0.668801
-0.809438
-0.777133
-0.545348
0.633711
3.69558
0
0
0
0
0
0
0
0
0
0
0
0
0
0
0
0
0
0
0
0
0
0
0
0
0
0
0
0
0
0
0
0
0
0
0
0
0
0
-0.232069
-0.274433
-0.342097
-0.415874
-0.423061
-0.513792
-0.568874
-0.673251
-0.655296
-0.339456
12.6097
0
0
0
0
0
0
0
0
0
0
0
0
0
0
0
0
0
0
0
0
0
0
0
0
0
0
0
0
0
0
0
0
0
0
0
0
0
0
0
-0.172139
-0.232985
-0.292954
-0.291705
-0.374047
-0.440271
-0.510059
-0.564237
-0.519198
0.392831
7.36307
0
0
0
0
0
0
0
0
0
0
0
0
0
0
0
0
0
0
0
0
0
0
0
0
0
0
0
0
0
0
0
0
0
0
0
0
0
0
0
-0.133551
-0.193024
-0.226726
-0.233798
-0.303738
-0.352168
-0.431893
-0.492129
-0.417551
22.2824
0
0
0
0
0
0
0
0
0
0
0
0
0
0
0
0
0
0
0
0
0
0
0
0
0
0
0
0
0
0
0
0
0
0
0
0
0
0
0
0
-0.106462
-0.152412
-0.16228
-0.19816
-0.240793
-0.281676
-0.335031
-0.390587
-0.275432
22.4329
0
0
0
0
0
0
0
0
0
0
0
0
0
0
0
0
0
0
0
0
0
0
0
0
0
0
0
0
0
0
0
0
0
0
0
0
0
0
0
0
-0.0911223
-0.11843
-0.127348
-0.14852
-0.176555
-0.211851
-0.24284
-0.279411
-0.144895
22.1605
0
0
0
0
0
0
0
0
0
0
0
0
0
0
0
0
0
0
0
0
0
0
0
0
0
0
0
0
0
0
0
0
0
0
0
0
0
0
0
0
0.382921
0.370597
0.369246
0.382356
0.382949
0.383356
0.38798
0.396169
0.529601
20.8142
0
0
0
0
0
0
0
0
0
0
0
0
0
0
0
0
0
0
0
0
0
0
0
0
0
0
0
0
0
0
0
0
0
0
0
0
0
0
0
0
1.68455
1.63822
1.79443
2.91799
2.92826
3.03439
4.13231
4.1418
4.26976
17.1298
0
0
0
0
0
0
0
0
0
0
0
0
0
0
0
0
0
0
0
0
0
0
0
0
0
0
0
0
0
0
0
0
0
0
0
0
0
0
0
0
6.55202
6.55536
6.55982
5.31204
5.40986
6.30896
5.08555
5.09432
5.2091
10.3371
0
0
0
0
0
0
0
0
0
0
0
0
0
0
0
0
0
0
0
0
0
0
0
0
0
0
0
0
0
0
0
0
0
0
0
0
0
0
0
0
5.52783
5.53996
5.54196
5.54121
5.54439
4.52522
5.16545
5.22779
16.4546
0
0
0
0
0
0
0
0
0
0
0
0
0
0
0
0
0
0
0
0
0
0
0
0
0
0
0
0
0
0
0
0
0
0
0
0
0
0
0
0
0
3.60674
3.66202
3.98033
3.98143
3.98244
3.98396
3.23505
3.31189
11.5415
0
0
0
0
0
0
0
0
0
0
0
0
0
0
0
0
0
0
0
0
0
0
0
0
0
0
0
0
0
0
0
0
0
0
0
0
0
0
0
0
0
6.01719
6.36025
5.75447
5.75462
5.75506
5.75536
5.75588
5.76119
8.30564
0
0
0
0
0
0
0
0
0
0
0
0
0
0
0
0
0
0
0
0
0
0
0
0
0
0
0
0
0
0
0
0
0
0
0
0
0
0
0
0
0
3.29611
2.74112
2.74112
2.74112
2.74112
2.74112
2.74112
2.74112
2.74112
0
0
0
0
0
0
0
0
0
0
0
0
0
0
0
0
0
0
0
0
0
0
0
0
0
0
0
0
0
0
0
0
0
0
0
0
0
0
0
0
0
0
0
0
0
0
0
0
0
0
0
0
0
0
0
0
0
0
0
0
0
0
0
0
0
0
0
0
0
0
0
0
0
0
0
0
0
0
0
0
0
0
0
0
0
0
0
0
0
0
0
