# vtk DataFile Version 4.0
Nusif Fluid VTK output
ASCII
DATASET STRUCTURED_POINTS
DIMENSIONS 50 20 1
ORIGIN 0 0 0 
SPACING 0.2 0.2 1
POINT_DATA 1000 

VECTORS velocity double
0.0509339 -0.0544021  0
0.153099 -0.055219  0
0.25727 -0.0568231  0
0.365533 -0.0593105  0
0.479628 -0.062704  0
0.601498 -0.0670734  0
0.732924 -0.0723534  0
0.87531 -0.0781971  0
1.02882 -0.0836756  0
1.19101 -0.086995  0
1.3547 -0.0852357  0
1.50622 -0.0748623  0
1.62717 -0.0546949  0
1.70125 -0.0280252  0
1.72136 -0.000758698  0
1.71778 0  0
0.858892 0  0
0 0  0
0 0  0
0 0  0
0 0  0
0 0  0
0 0  0
0 0  0
0 0  0
0 0  0
0 0  0
0 0  0
0 0  0
0 0  0
0 0  0
0 0  0
0 0  0
0 0  0
0 0  0
0 0  0
0 0  0
0 0  0
0 0  0
0 0  0
0 0  0
0 0  0
0 0  0
0 0  0
0 0  0
0 0  0
0 0  0
0 0  0
0 0  0
0 0  0
0.0500652 -0.162732  0
0.15055 -0.165091  0
0.252942 -0.169757  0
0.359194 -0.177078  0
0.470975 -0.187111  0
0.590031 -0.200083  0
0.718039 -0.215615  0
0.856353 -0.232647  0
1.00511 -0.248565  0
1.16181 -0.258087  0
1.31909 -0.252262  0
1.46241 -0.219926  0
1.573 -0.158476  0
1.64114 -0.0838201  0
1.66456 -0.0015174  0
1.69117 -0.000758698  0
0.858892 0  0
0 0  0
0 0  0
0 0  0
0 0  0
0 0  0
0 0  0
0 0  0
0 0  0
0 0  0
0 0  0
0 0  0
0 0  0
0 0  0
0 0  0
0 0  0
0 0  0
0 0  0
0 0  0
0 0  0
0 0  0
0 0  0
0 0  0
0 0  0
0 0  0
0 0  0
0 0  0
0 0  0
0 0  0
0 0  0
0 0  0
0 0  0
0 0  0
0 0  0
0.0484617 -0.268976  0
0.14581 -0.27263  0
0.2448 -0.280211  0
0.347182 -0.29207  0
0.454505 -0.308431  0
0.568357 -0.329223  0
0.69038 -0.353986  0
0.821624 -0.381159  0
0.962147 -0.406592  0
1.1095 -0.421414  0
1.25571 -0.409761  0
1.38201 -0.349449  0
1.46515 -0.240102  0
1.49333 -0.11159  0
1.57895 -0.0565536  0
0.83228 -0.000758698  0
0 0  0
0 0  0
0 0  0
0 0  0
0 0  0
0 0  0
0 0  0
0 0  0
0 0  0
0 0  0
0 0  0
0 0  0
0 0  0
0 0  0
0 0  0
0 0  0
0 0  0
0 0  0
0 0  0
0 0  0
0 0  0
0 0  0
0 0  0
0 0  0
0 0  0
0 0  0
0 0  0
0 0  0
0 0  0
0 0  0
0 0  0
0 0  0
0 0  0
0 0  0
0.046263 -0.371292  0
0.139 -0.376172  0
0.232978 -0.386507  0
0.329826 -0.402482  0
0.431118 -0.424164  0
0.538146 -0.451655  0
0.651971 -0.484522  0
0.773595 -0.520672  0
0.903286 -0.554553  0
1.03891 -0.573789  0
1.17255 -0.554656  0
1.28341 -0.459173  0
1.32945 -0.272643  0
1.41139 -0.192116  0
0.746666 -0.0557949  0
0 0  0
0 0  0
0 0  0
0 0  0
0 0  0
0 0  0
0 0  0
0 0  0
0 0  0
0 0  0
0 0  0
0 0  0
0 0  0
0 0  0
0 0  0
0 0  0
0 0  0
0 0  0
0 0  0
0 0  0
0 0  0
0 0  0
0 0  0
0 0  0
0 0  0
0 0  0
0 0  0
0 0  0
0 0  0
0 0  0
0 0  0
0 0  0
0 0  0
0 0  0
0 0  0
0.0433899 -0.468534  0
0.130215 -0.474541  0
0.217934 -0.487253  0
0.308284 -0.506398  0
0.402252 -0.532516  0
0.500581 -0.565701  0
0.604453 -0.605355  0
0.714615 -0.648962  0
0.831076 -0.689799  0
0.951943 -0.712425  0
1.07077 -0.685916  0
1.18185 -0.562962  0
1.28234 -0.313804  0
0.664723 -0.136321  0
0 0  0
0 0  0
0 0  0
0 0  0
0 0  0
0 0  0
0 0  0
0 0  0
0 0  0
0 0  0
0 0  0
0 0  0
0 0  0
0 0  0
0 0  0
0 0  0
0 0  0
0 0  0
0 0  0
0 0  0
0 0  0
0 0  0
0 0  0
0 0  0
0 0  0
0 0  0
0 0  0
0 0  0
0 0  0
0 0  0
0 0  0
0 0  0
0 0  0
0 0  0
0 0  0
0 0  0
0.040034 -0.559617  0
0.119878 -0.566629  0
0.200587 -0.580951  0
0.283299 -0.602703  0
0.368552 -0.63246  0
0.457277 -0.670104  0
0.549986 -0.714877  0
0.647003 -0.763946  0
0.747585 -0.809234  0
0.847471 -0.831173  0
0.93511 -0.791101  0
0.973851 -0.616347  0
0.486926 -0.485656  0
0 0  0
0 0  0
0 0  0
0 0  0
0 0  0
0 0  0
0 0  0
0 0  0
0 0  0
0 0  0
0 0  0
0 0  0
0 0  0
0 0  0
0 0  0
0 0  0
0 0  0
0 0  0
0 0  0
0 0  0
0 0  0
0 0  0
0 0  0
0 0  0
0 0  0
0 0  0
0 0  0
0 0  0
0 0  0
0 0  0
0 0  0
0 0  0
0 0  0
0 0  0
0 0  0
0 0  0
0 0  0
0.0361501 -0.643676  0
0.108499 -0.651318  0
0.181371 -0.666864  0
0.25552 -0.690747  0
0.331513 -0.723027  0
0.409778 -0.763784  0
0.490606 -0.812049  0
0.573891 -0.86445  0
0.658278 -0.91112  0
0.739001 -0.927339  0
0.813976 -0.870647  0
0.912131 -0.668194  0
0.486926 -0.308174  0
0 0  0
0 0  0
0 0  0
0 0  0
0 0  0
0 0  0
0 0  0
0 0  0
0 0  0
0 0  0
0 0  0
0 0  0
0 0  0
0 0  0
0 0  0
0 0  0
0 0  0
0 0  0
0 0  0
0 0  0
0 0  0
0 0  0
0 0  0
0 0  0
0 0  0
0 0  0
0 0  0
0 0  0
0 0  0
0 0  0
0 0  0
0 0  0
0 0  0
0 0  0
0 0  0
0 0  0
0 0  0
0.0321867 -0.71999  0
0.0963595 -0.727995  0
0.16072 -0.744549  0
0.225906 -0.769682  0
0.292144 -0.803617  0
0.359624 -0.846279  0
0.42837 -0.896506  0
0.498272 -0.950566  0
0.568503 -0.997054  0
0.633447 -1.00454  0
0.66337 -0.907082  0
0.331685 -0.813561  0
0 0  0
0 0  0
0 0  0
0 0  0
0 0  0
0 0  0
0 0  0
0 0  0
0 0  0
0 0  0
0 0  0
0 0  0
0 0  0
0 0  0
0 0  0
0 0  0
0 0  0
0 0  0
0 0  0
0 0  0
0 0  0
0 0  0
0 0  0
0 0  0
0 0  0
0 0  0
0 0  0
0 0  0
0 0  0
0 0  0
0 0  0
0 0  0
0 0  0
0 0  0
0 0  0
0 0  0
0 0  0
0 0  0
0.0279803 -0.788047  0
0.0836757 -0.796438  0
0.139299 -0.813436  0
0.195261 -0.83924  0
0.25154 -0.873924  0
0.308119 -0.917362  0
0.364868 -0.968309  0
0.421992 -1.02321  0
0.481628 -1.07172  0
0.553644 -1.07994  0
0.629061 -0.94048  0
0.331685 -0.453541  0
0 0  0
0 0  0
0 0  0
0 0  0
0 0  0
0 0  0
0 0  0
0 0  0
0 0  0
0 0  0
0 0  0
0 0  0
0 0  0
0 0  0
0 0  0
0 0  0
0 0  0
0 0  0
0 0  0
0 0  0
0 0  0
0 0  0
0 0  0
0 0  0
0 0  0
0 0  0
0 0  0
0 0  0
0 0  0
0 0  0
0 0  0
0 0  0
0 0  0
0 0  0
0 0  0
0 0  0
0 0  0
0 0  0
0.0236803 -0.847774  0
0.0707902 -0.856271  0
0.117614 -0.873382  0
0.164337 -0.899285  0
0.210771 -0.933964  0
0.256585 -0.9771  0
0.301245 -1.02736  0
0.34387 -1.08133  0
0.383424 -1.13023  0
0.424941 -1.14369  0
0.223789 -1.0123  0
0 0  0
0 0  0
0 0  0
0 0  0
0 0  0
0 0  0
0 0  0
0 0  0
0 0  0
0 0  0
0 0  0
0 0  0
0 0  0
0 0  0
0 0  0
0 0  0
0 0  0
0 0  0
0 0  0
0 0  0
0 0  0
0 0  0
0 0  0
0 0  0
0 0  0
0 0  0
0 0  0
0 0  0
0 0  0
0 0  0
0 0  0
0 0  0
0 0  0
0 0  0
0 0  0
0 0  0
0 0  0
0 0  0
0 0  0
0.0194317 -0.899117  0
0.0580437 -0.90753  0
0.0962227 -0.924472  0
0.133969 -0.950008  0
0.170979 -0.98404  0
0.206709 -1.02597  0
0.240385 -1.07422  0
0.270711 -1.12483  0
0.295683 -1.16868  0
0.319257 -1.17904  0
0.165988 -1.07591  0
0 0  0
0 0  0
0 0  0
0 0  0
0 0  0
0 0  0
0 0  0
0 0  0
0 0  0
0 0  0
0 0  0
0 0  0
0 0  0
0 0  0
0 0  0
0 0  0
0 0  0
0 0  0
0 0  0
0 0  0
0 0  0
0 0  0
0 0  0
0 0  0
0 0  0
0 0  0
0 0  0
0 0  0
0 0  0
0 0  0
0 0  0
0 0  0
0 0  0
0 0  0
0 0  0
0 0  0
0 0  0
0 0  0
0 0  0
0.0153549 -0.942251  0
0.045825 -0.950479  0
0.0757973 -0.96704  0
0.105149 -0.991926  0
0.133494 -1.02485  0
0.160127 -1.06493  0
0.184331 -1.11055  0
0.205029 -1.15693  0
0.220149 -1.19408  0
0.233647 -1.19942  0
0.12065 -1.11719  0
0 0  0
0 0  0
0 0  0
0 0  0
0 0  0
0 0  0
0 0  0
0 0  0
0 0  0
0 0  0
0 0  0
0 0  0
0 0  0
0 0  0
0 0  0
0 0  0
0 0  0
0 0  0
0 0  0
0 0  0
0 0  0
0 0  0
0 0  0
0 0  0
0 0  0
0 0  0
0 0  0
0 0  0
0 0  0
0 0  0
0 0  0
0 0  0
0 0  0
0 0  0
0 0  0
0 0  0
0 0  0
0 0  0
0 0  0
0.0116584 -0.977715  0
0.0347681 -0.985708  0
0.0574136 -1.00181  0
0.0794462 -1.02595  0
0.100405 -1.05752  0
0.119058 -1.09494  0
0.135054 -1.13814  0
0.148162 -1.18055  0
0.15624 -1.21106  0
0.163098 -1.2115  0
0.083763 -1.14559  0
0 0  0
0 0  0
0 0  0
0 0  0
0 0  0
0 0  0
0 0  0
0 0  0
0 0  0
0 0  0
0 0  0
0 0  0
0 0  0
0 0  0
0 0  0
0 0  0
0 0  0
0 0  0
0 0  0
0 0  0
0 0  0
0 0  0
0 0  0
0 0  0
0 0  0
0 0  0
0 0  0
0 0  0
0 0  0
0 0  0
0 0  0
0 0  0
0 0  0
0 0  0
0 0  0
0 0  0
0 0  0
0 0  0
0 0  0
0.00875593 -1.00667  0
0.0261189 -1.01445  0
0.0431751 -1.03017  0
0.0599002 -1.05377  0
0.0759865 -1.08416  0
0.0879196 -1.11631  0
0.0962523 -1.15851  0
0.103318 -1.19775  0
0.106256 -1.22226  0
0.107913 -1.2175  0
0.054744 -1.17319  0
0 0  0
0 0  0
0 0  0
0 0  0
0 0  0
0 0  0
0 0  0
0 0  0
0 0  0
0 0  0
0 0  0
0 0  0
0 0  0
0 0  0
0 0  0
0 0  0
0 0  0
0 0  0
0 0  0
0 0  0
0 0  0
0 0  0
0 0  0
0 0  0
0 0  0
0 0  0
0 0  0
0 0  0
0 0  0
0 0  0
0 0  0
0 0  0
0 0  0
0 0  0
0 0  0
0 0  0
0 0  0
0 0  0
0 0  0
0.00734366 -1.0314  0
0.0219637 -1.03903  0
0.036426 -1.05452  0
0.0509123 -1.07806  0
0.0650252 -1.10749  0
0.0755117 -1.12846  0
0.0817647 -1.16965  0
0.0832014 -1.20381  0
0.0804837 -1.22511  0
0.0789083 -1.21907  0
0.0394541 -1.20378  0
0 0  0
0 0  0
0 0  0
0 0  0
0 0  0
0 0  0
0 0  0
0 0  0
0 0  0
0 0  0
0 0  0
0 0  0
0 0  0
0 0  0
0 0  0
0 0  0
0 0  0
0 0  0
0 0  0
0 0  0
0 0  0
0 0  0
0 0  0
0 0  0
0 0  0
0 0  0
0 0  0
0 0  0
0 0  0
0 0  0
0 0  0
0 0  0
0 0  0
0 0  0
0 0  0
0 0  0
0 0  0
0 0  0
0 0  0
0.0081791 -1.05127  0
0.0243993 -1.0587  0
0.0401042 -1.07372  0
0.0528975 -1.09485  0
0.0580271 -1.11866  0
0.0886509 -1.1254  0
0.117029 -0.586114  0
0.108853 -0.601333  0
0.0886879 -0.611765  0
0.0766805 -0.609537  0
0.0394541 -0.609537  0
0 0  0
0 0  0
0 0  0
0 0  0
0 0  0
0 0  0
0 0  0
0 0  0
0 0  0
0 0  0
0 0  0
0 0  0
0 0  0
0 0  0
0 0  0
0 0  0
0 0  0
0 0  0
0 0  0
0 0  0
0 0  0
0 0  0
0 0  0
0 0  0
0 0  0
0 0  0
0 0  0
0 0  0
0 0  0
0 0  0
0 0  0
0 0  0
0 0  0
0 0  0
0 0  0
0 0  0
0 0  0
0 0  0
0 0  0
0.0118251 -0.529723  0
0.0353704 -0.533369  0
0.0567261 -0.540694  0
0.0715313 -0.54999  0
0.0673641 -0.559328  0
0.0290135 -0.559328  0
0 0  0
0 0  0
0 0  0
0 0  0
0 0  0
0 0  0
0 0  0
0 0  0
0 0  0
0 0  0
0 0  0
0 0  0
0 0  0
0 0  0
0 0  0
0 0  0
0 0  0
0 0  0
0 0  0
0 0  0
0 0  0
0 0  0
0 0  0
0 0  0
0 0  0
0 0  0
0 0  0
0 0  0
0 0  0
0 0  0
0 0  0
0 0  0
0 0  0
0 0  0
0 0  0
0 0  0
0 0  0
0 0  0
0 0  0
0 0  0
0 0  0
0 0  0
0 0  0
0 0  0
0 0  0
0 0  0
0 0  0
0 0  0
0 0  0
0 0  0
0 0  0
0 0  0
0 0  0
0 0  0
0 0  0
0 0  0
0 0  0
0 0  0
0 0  0
0 0  0
0 0  0
0 0  0
0 0  0
0 0  0
0 0  0
0 0  0
0 0  0
0 0  0
0 0  0
0 0  0
0 0  0
0 0  0
0 0  0
0 0  0
0 0  0
0 0  0
0 0  0
0 0  0
0 0  0
0 0  0
0 0  0
0 0  0
0 0  0
0 0  0
0 0  0
0 0  0
0 0  0
0 0  0
0 0  0
0 0  0
0 0  0
0 0  0
0 0  0
0 0  0
0 0  0
0 0  0
0 0  0
0 0  0
0 0  0
0 0  0
0 0  0
0 0  0
0 0  0
0 0  0
0 0  0
0 0  0
0 0  0
0 0  0
0 0  0
0 0  0
0 0  0
0 0  0
0 0  0
0 0  0
0 0  0
0 0  0
0 0  0
0 0  0
0 0  0
0 0  0
0 0  0
0 0  0
0 0  0
0 0  0
0 0  0
0 0  0
0 0  0
0 0  0
0 0  0
0 0  0
0 0  0
0 0  0
0 0  0
0 0  0
0 0  0
0 0  0
0 0  0
0 0  0
0 0  0
0 0  0
0 0  0
0 0  0
0 0  0
0 0  0
0 0  0
0 0  0
0 0  0
0 0  0
0 0  0
0 0  0
0 0  0
0 0  0
0 0  0
0 0  0
0 0  0
0 0  0
0 0  0
0 0  0
0 0  0
0 0  0
0 0  0
0 0  0
0 0  0
0 0  0
0 0  0
0 0  0
0 0  0
0 0  0
0 0  0
0 0  0
0 0  0
0 0  0
0 0  0
0 0  0
0 0  0
0 0  0
0 0  0
0 0  0
0 0  0
0 0  0
0 0  0
0 0  0
0 0  0
0 0  0
0 0  0
0 0  0
0 0  0
0 0  0
0 0  0
0 0  0
0 0  0
0 0  0
0 0  0
0 0  0

SCALARS pressure double 1
LOOKUP_TABLE default
2.73632
2.71172
2.66871
2.60599
2.5229
2.41665
2.28438
2.12202
1.92531
1.69076
1.41918
1.12147
0.823799
0.566236
0.39958
0.475411
0
0
0
0
0
0
0
0
0
0
0
0
0
0
0
0
0
0
0
0
0
0
0
0
0
0
0
0
0
0
0
0
0
0
2.52147
2.49738
2.45422
2.39133
2.30746
2.20018
2.06666
1.90266
1.70309
1.46381
1.18503
0.876732
0.562233
0.263806
-0.0557737
0
0
0
0
0
0
0
0
0
0
0
0
0
0
0
0
0
0
0
0
0
0
0
0
0
0
0
0
0
0
0
0
0
0
0
2.30363
2.27988
2.23579
2.17248
2.08769
1.9801
1.8452
1.678
1.47316
1.22617
0.936353
0.613445
0.285651
-0.00504524
0
0
0
0
0
0
0
0
0
0
0
0
0
0
0
0
0
0
0
0
0
0
0
0
0
0
0
0
0
0
0
0
0
0
0
0
2.08452
2.06014
2.01589
1.9528
1.86891
1.76016
1.62267
1.45214
1.24276
0.988974
0.689361
0.353695
0.00631648
0
0
0
0
0
0
0
0
0
0
0
0
0
0
0
0
0
0
0
0
0
0
0
0
0
0
0
0
0
0
0
0
0
0
0
0
0
1.86565
1.84149
1.79824
1.73656
1.65161
1.54213
1.40405
1.23186
1.01974
0.762787
0.460495
0.120058
0
0
0
0
0
0
0
0
0
0
0
0
0
0
0
0
0
0
0
0
0
0
0
0
0
0
0
0
0
0
0
0
0
0
0
0
0
0
1.65031
1.62646
1.58544
1.52318
1.43992
1.33152
1.19403
1.02225
0.810505
0.555318
0.263415
-0.021902
0
0
0
0
0
0
0
0
0
0
0
0
0
0
0
0
0
0
0
0
0
0
0
0
0
0
0
0
0
0
0
0
0
0
0
0
0
0
1.44023
1.41843
1.37773
1.31788
1.2368
1.13127
0.997084
0.828685
0.620535
0.370193
0.0853023
0
0
0
0
0
0
0
0
0
0
0
0
0
0
0
0
0
0
0
0
0
0
0
0
0
0
0
0
0
0
0
0
0
0
0
0
0
0
0
1.23847
1.21716
1.17887
1.12211
1.04519
0.944794
0.81687
0.655862
0.455412
0.213136
-0.0397454
0
0
0
0
0
0
0
0
0
0
0
0
0
0
0
0
0
0
0
0
0
0
0
0
0
0
0
0
0
0
0
0
0
0
0
0
0
0
0
1.04536
1.02567
0.990271
0.93775
0.866571
0.774055
0.656236
0.507776
0.320468
0.0808838
0
0
0
0
0
0
0
0
0
0
0
0
0
0
0
0
0
0
0
0
0
0
0
0
0
0
0
0
0
0
0
0
0
0
0
0
0
0
0
0
0.862228
0.844759
0.812778
0.765639
0.70177
0.619462
0.515827
0.387098
0.228914
0.0407974
0
0
0
0
0
0
0
0
0
0
0
0
0
0
0
0
0
0
0
0
0
0
0
0
0
0
0
0
0
0
0
0
0
0
0
0
0
0
0
0
0.689856
0.674725
0.646718
0.605572
0.550164
0.479668
0.392869
0.287773
0.16293
0.0230461
0
0
0
0
0
0
0
0
0
0
0
0
0
0
0
0
0
0
0
0
0
0
0
0
0
0
0
0
0
0
0
0
0
0
0
0
0
0
0
0
0.52821
0.515554
0.491844
0.456901
0.410101
0.351704
0.282946
0.202911
0.111256
0.0137806
0
0
0
0
0
0
0
0
0
0
0
0
0
0
0
0
0
0
0
0
0
0
0
0
0
0
0
0
0
0
0
0
0
0
0
0
0
0
0
0
0.376789
0.366732
0.347539
0.318734
0.279554
0.231261
0.180927
0.126517
0.0671359
0.00822265
0
0
0
0
0
0
0
0
0
0
0
0
0
0
0
0
0
0
0
0
0
0
0
0
0
0
0
0
0
0
0
0
0
0
0
0
0
0
0
0
0.234583
0.227374
0.213206
0.190729
0.157327
0.111445
0.0811337
0.0535777
0.0260152
0.00324815
0
0
0
0
0
0
0
0
0
0
0
0
0
0
0
0
0
0
0
0
0
0
0
0
0
0
0
0
0
0
0
0
0
0
0
0
0
0
0
0
0.09993
0.0961546
0.0882915
0.0744121
0.0479539
-0.0083172
-0.00571971
-0.0030788
0.00130577
-0.0113359
0
0
0
0
0
0
0
0
0
0
0
0
0
0
0
0
0
0
0
0
0
0
0
0
0
0
0
0
0
0
0
0
0
0
0
0
0
0
0
0
-0.0147729
-0.014673
-0.0140176
-0.0124761
-0.010912
0
0
0
0
0
0
0
0
0
0
0
0
0
0
0
0
0
0
0
0
0
0
0
0
0
0
0
0
0
0
0
0
0
0
0
0
0
0
0
0
0
0
0
0
0
0
0
0
0
0
0
0
0
0
0
0
0
0
0
0
0
0
0
0
0
0
0
0
0
0
0
0
0
0
0
0
0
0
0
0
0
0
0
0
0
0
0
0
0
0
0
0
0
0
0
0
0
0
0
0
0
0
0
0
0
0
0
0
0
0
0
0
0
0
0
0
0
0
0
0
0
0
0
0
0
0
0
0
0
0
0
0
0
0
0
0
0
0
0
0
0
0
0
0
0
0
0
0
0
0
0
0
0
0
0
0
0
0
0
0
0
0
0
0
0
0
0
0
0
0
0
0
0
0
0
0
0
0
0
0
0
0
0
0
0
0
0
0
0
0
0
0
0
0
0
0
0
0
0
0
0
0
0
0
0
0
0
0
0
0
0
0
0
0
0
0
0
0
0
0
0
0
0
0
0
0
0
0
0
0
0
0
0
0
0
0
0
0
0
0
0
0
0
0
0
SCALARS rhs double 1
LOOKUP_TABLE default
-5.76943
-5.73188
-5.74162
-5.78887
-5.86392
-5.97224
-6.11738
-6.29388
-6.47283
-6.58074
-6.49345
-6.10724
-5.53074
-5.2864
-5.32219
1.08398
0
0
0
0
0
0
0
0
0
0
0
0
0
0
0
0
0
0
0
0
0
0
0
0
0
0
0
0
0
0
0
0
0
0
-0.558655
-0.529684
-0.542727
-0.589427
-0.659784
-0.757662
-0.885186
-1.03584
-1.18034
-1.24444
-1.09674
-0.621663
0.021774
0.306115
3.2226
0
0
0
0
0
0
0
0
0
0
0
0
0
0
0
0
0
0
0
0
0
0
0
0
0
0
0
0
0
0
0
0
0
0
0
-0.505284
-0.480358
-0.493563
-0.538064
-0.604099
-0.694871
-0.811368
-0.945094
-1.0613
-1.06853
-0.791359
-0.0398265
0.85201
3.2226
0
0
0
0
0
0
0
0
0
0
0
0
0
0
0
0
0
0
0
0
0
0
0
0
0
0
0
0
0
0
0
0
0
0
0
0
-0.453573
-0.43052
-0.442616
-0.483064
-0.542546
-0.623742
-0.726702
-0.84115
-0.926232
-0.86999
-0.453321
0.351462
3.2226
0
0
0
0
0
0
0
0
0
0
0
0
0
0
0
0
0
0
0
0
0
0
0
0
0
0
0
0
0
0
0
0
0
0
0
0
0
-0.39481
-0.372789
-0.383604
-0.419601
-0.47218
-0.543383
-0.632137
-0.726511
-0.781234
-0.672682
-0.169182
5.24658
0
0
0
0
0
0
0
0
0
0
0
0
0
0
0
0
0
0
0
0
0
0
0
0
0
0
0
0
0
0
0
0
0
0
0
0
0
0
-0.33247
-0.311106
-0.320608
-0.352147
-0.397878
-0.458912
-0.53237
-0.602062
-0.6079
-0.365477
0.630383
2.11855
0
0
0
0
0
0
0
0
0
0
0
0
0
0
0
0
0
0
0
0
0
0
0
0
0
0
0
0
0
0
0
0
0
0
0
0
0
0
-0.26989
-0.249058
-0.257356
-0.284765
-0.324083
-0.375375
-0.434062
-0.479775
-0.440679
-0.17006
6.66955
0
0
0
0
0
0
0
0
0
0
0
0
0
0
0
0
0
0
0
0
0
0
0
0
0
0
0
0
0
0
0
0
0
0
0
0
0
0
0
-0.209837
-0.1897
-0.19705
-0.220814
-0.25444
-0.297169
-0.343449
-0.37081
-0.298468
0.345922
5.24658
0
0
0
0
0
0
0
0
0
0
0
0
0
0
0
0
0
0
0
0
0
0
0
0
0
0
0
0
0
0
0
0
0
0
0
0
0
0
0
-0.154398
-0.135429
-0.142096
-0.162783
-0.191579
-0.22729
-0.265373
-0.292175
-0.230072
14.6692
0
0
0
0
0
0
0
0
0
0
0
0
0
0
0
0
0
0
0
0
0
0
0
0
0
0
0
0
0
0
0
0
0
0
0
0
0
0
0
0
-0.104995
-0.0878168
-0.0941096
-0.11232
-0.13704
-0.166184
-0.194334
-0.207947
-0.114727
14.9193
0
0
0
0
0
0
0
0
0
0
0
0
0
0
0
0
0
0
0
0
0
0
0
0
0
0
0
0
0
0
0
0
0
0
0
0
0
0
0
0
-0.0624712
-0.0477852
-0.0539707
-0.0702259
-0.0916914
-0.115418
-0.134922
-0.136192
-0.0229135
15.0698
0
0
0
0
0
0
0
0
0
0
0
0
0
0
0
0
0
0
0
0
0
0
0
0
0
0
0
0
0
0
0
0
0
0
0
0
0
0
0
0
-0.0272507
-0.0156748
-0.021747
-0.0362826
-0.055029
-0.0745895
-0.0882144
-0.08253
0.0397123
14.7974
0
0
0
0
0
0
0
0
0
0
0
0
0
0
0
0
0
0
0
0
0
0
0
0
0
0
0
0
0
0
0
0
0
0
0
0
0
0
0
0
0.000541543
0.00860897
0.00318175
-0.00895851
-0.0243903
-0.0399171
-0.049586
-0.0410082
0.0841365
13.4511
0
0
0
0
0
0
0
0
0
0
0
0
0
0
0
0
0
0
0
0
0
0
0
0
0
0
0
0
0
0
0
0
0
0
0
0
0
0
0
0
0.0208833
0.0254666
0.0221009
0.0145718
0.00498099
0.385577
0.388516
0.40426
0.528607
9.76669
0
0
0
0
0
0
0
0
0
0
0
0
0
0
0
0
0
0
0
0
0
0
0
0
0
0
0
0
0
0
0
0
0
0
0
0
0
0
0
0
0.40198
0.40532
0.409784
0.415426
0.513242
1.41234
1.41806
1.42682
1.54161
6.66955
0
0
0
0
0
0
0
0
0
0
0
0
0
0
0
0
0
0
0
0
0
0
0
0
0
0
0
0
0
0
0
0
0
0
0
0
0
0
0
0
5.52783
5.53996
5.54196
5.54121
5.54439
4.52522
5.16545
5.22779
16.4546
0
0
0
0
0
0
0
0
0
0
0
0
0
0
0
0
0
0
0
0
0
0
0
0
0
0
0
0
0
0
0
0
0
0
0
0
0
0
0
0
0
3.60674
3.66202
3.98033
3.98143
3.98244
3.98396
3.23505
3.31189
11.5415
0
0
0
0
0
0
0
0
0
0
0
0
0
0
0
0
0
0
0
0
0
0
0
0
0
0
0
0
0
0
0
0
0
0
0
0
0
0
0
0
0
6.01719
6.36025
5.75447
5.75462
5.75506
5.75536
5.75588
5.76119
8.30564
0
0
0
0
0
0
0
0
0
0
0
0
0
0
0
0
0
0
0
0
0
0
0
0
0
0
0
0
0
0
0
0
0
0
0
0
0
0
0
0
0
3.29611
2.74112
2.74112
2.74112
2.74112
2.74112
2.74112
2.74112
2.74112
0
0
0
0
0
0
0
0
0
0
0
0
0
0
0
0
0
0
0
0
0
0
0
0
0
0
0
0
0
0
0
0
0
0
0
0
0
0
0
0
0
0
0
0
0
0
0
0
0
0
0
0
0
0
0
0
0
0
0
0
0
0
0
0
0
0
0
0
0
0
0
0
0
0
0
0
0
0
0
0
0
0
0
0
0
0
0
0
0
0
0
