# vtk DataFile Version 4.0
Nusif Fluid VTK output
ASCII
DATASET STRUCTURED_POINTS
DIMENSIONS 50 20 1
ORIGIN 0 0 0 
SPACING 0.2 0.2 1
POINT_DATA 1000 

VECTORS velocity double
0.050321 -0.0554958  0
0.151119 -0.0563689  0
0.253692 -0.0580299  0
0.360313 -0.0605446  0
0.472674 -0.0639206  0
0.592519 -0.0681508  0
0.721479 -0.0731564  0
0.860838 -0.0786745  0
1.01109 -0.0841643  0
1.17131 -0.0887525  0
1.33865 -0.0913882  0
1.50832 -0.0911632  0
1.67408 -0.0875597  0
1.82891 -0.0802946  0
1.96592 -0.0697894  0
2.0815 -0.0589065  0
2.17562 -0.0483635  0
2.24788 -0.0370642  0
2.29922 -0.027459  0
2.33371 -0.0202333  0
2.35259 -0.0118561  0
2.35508 -0.00384876  0
2.34702 -0.00129724  0
2.3315 0.00359892  0
2.30203 0.0126536  0
2.29188 -0.0091159  0
1.1505 0.00955559  0
0 0  0
0 0  0
0 0  0
0 0  0
0 0  0
0 0  0
0 0  0
0 0  0
0 0  0
0 0  0
0 0  0
0 0  0
0 0  0
0 0  0
0 0  0
0 0  0
0 0  0
0 0  0
0 0  0
0 0  0
0 0  0
0 0  0
0 0  0
0.0494567 -0.166353  0
0.148555 -0.168902  0
0.249389 -0.173792  0
0.354147 -0.181209  0
0.46452 -0.191203  0
0.582255 -0.2038  0
0.709092 -0.218802  0
0.846552 -0.235493  0
0.99539 -0.252214  0
1.15475 -0.266188  0
1.32144 -0.273999  0
1.48995 -0.272837  0
1.6535 -0.2614  0
1.80449 -0.238535  0
1.9343 -0.204685  0
2.04002 -0.171661  0
2.12521 -0.141309  0
2.18928 -0.106845  0
2.23197 -0.0781235  0
2.26069 -0.0592058  0
2.27878 -0.0362821  0
2.28081 -0.0103858  0
2.27429 -0.00660598  0
2.27123 0.00105005  0
2.26721 0.0288651  0
2.26365 -0.0182318  0
1.13183 0.000439686  0
0 0  0
0 0  0
0 0  0
0 0  0
0 0  0
0 0  0
0 0  0
0 0  0
0 0  0
0 0  0
0 0  0
0 0  0
0 0  0
0 0  0
0 0  0
0 0  0
0 0  0
0 0  0
0 0  0
0 0  0
0 0  0
0 0  0
0 0  0
0.0477782 -0.275501  0
0.143547 -0.279582  0
0.240957 -0.287521  0
0.342044 -0.299566  0
0.448447 -0.315872  0
0.561894 -0.336594  0
0.684303 -0.361586  0
0.81765 -0.389889  0
0.963255 -0.418659  0
1.12039 -0.442675  0
1.28507 -0.455334  0
1.45009 -0.451502  0
1.60799 -0.430676  0
1.75085 -0.389598  0
1.86559 -0.324661  0
1.95111 -0.269401  0
2.02033 -0.224464  0
2.07265 -0.166543  0
2.10234 -0.117268  0
2.12221 -0.0950988  0
2.14046 -0.063178  0
2.14986 -0.0147545  0
2.15453 -0.0136123  0
2.15753 -0.00509774  0
2.23592 0.0136627  0
2.28898 -0.0091159  0
1.13183 -0.0091159  0
0 0  0
0 0  0
0 0  0
0 0  0
0 0  0
0 0  0
0 0  0
0 0  0
0 0  0
0 0  0
0 0  0
0 0  0
0 0  0
0 0  0
0 0  0
0 0  0
0 0  0
0 0  0
0 0  0
0 0  0
0 0  0
0 0  0
0 0  0
0.0454216 -0.380815  0
0.136452 -0.386267  0
0.228963 -0.397014  0
0.324797 -0.413309  0
0.425406 -0.435454  0
0.532376 -0.463785  0
0.647698 -0.498521  0
0.773934 -0.538963  0
0.913288 -0.580987  0
1.06522 -0.615888  0
1.22456 -0.632629  0
1.38041 -0.62158  0
1.52469 -0.589285  0
1.65283 -0.52851  0
1.74582 -0.419998  0
1.80465 -0.344907  0
1.85347 -0.293478  0
1.89373 -0.21658  0
1.9294 -0.152441  0
1.95592 -0.119542  0
1.96321 -0.0775041  0
2.05746 -0.0469695  0
2.14886 -0.00830356  0
2.15177 -0.00254887  0
1.07876 -0.00254887  0
0 0  0
0 0  0
0 0  0
0 0  0
0 0  0
0 0  0
0 0  0
0 0  0
0 0  0
0 0  0
0 0  0
0 0  0
0 0  0
0 0  0
0 0  0
0 0  0
0 0  0
0 0  0
0 0  0
0 0  0
0 0  0
0 0  0
0 0  0
0 0  0
0 0  0
0.042561 -0.481104  0
0.127799 -0.487719  0
0.214311 -0.500939  0
0.303713 -0.520972  0
0.397158 -0.548224  0
0.495781 -0.583032  0
0.60111 -0.626372  0
0.716233 -0.678941  0
0.844519 -0.735135  0
0.985723 -0.781381  0
1.13372 -0.800991  0
1.27099 -0.772872  0
1.38403 -0.721849  0
1.48108 -0.647681  0
1.56084 -0.493478  0
1.61396 -0.396632  0
1.65411 -0.343959  0
1.67416 -0.239637  0
1.78897 -0.205656  0
1.90884 -0.0634157  0
1.93855 -0.038752  0
0.981607 -0.038752  0
0 0  0
0 0  0
0 0  0
0 0  0
0 0  0
0 0  0
0 0  0
0 0  0
0 0  0
0 0  0
0 0  0
0 0  0
0 0  0
0 0  0
0 0  0
0 0  0
0 0  0
0 0  0
0 0  0
0 0  0
0 0  0
0 0  0
0 0  0
0 0  0
0 0  0
0 0  0
0 0  0
0 0  0
0.0394717 -0.575644  0
0.118449 -0.583132  0
0.198515 -0.598529  0
0.281029 -0.621703  0
0.366929 -0.65329  0
0.456431 -0.692564  0
0.549394 -0.741624  0
0.648765 -0.804694  0
0.7591 -0.874529  0
0.880821 -0.93145  0
1.00634 -0.950989  0
1.11124 -0.891602  0
1.17607 -0.80092  0
1.19819 -0.701057  0
1.34115 -0.613774  0
1.53272 -0.208372  0
1.56556 -0.182  0
1.61197 -0.119819  0
0.837078 -0.119819  0
0 0  0
0 0  0
0 0  0
0 0  0
0 0  0
0 0  0
0 0  0
0 0  0
0 0  0
0 0  0
0 0  0
0 0  0
0 0  0
0 0  0
0 0  0
0 0  0
0 0  0
0 0  0
0 0  0
0 0  0
0 0  0
0 0  0
0 0  0
0 0  0
0 0  0
0 0  0
0 0  0
0 0  0
0 0  0
0 0  0
0 0  0
0.0365268 -0.664354  0
0.109592 -0.67243  0
0.183718 -0.689901  0
0.259786 -0.715396  0
0.338872 -0.751093  0
0.420862 -0.792775  0
0.500911 -0.840964  0
0.579949 -0.910306  0
0.66654 -0.992402  0
0.756131 -1.05145  0
0.834945 -1.06189  0
0.870386 -0.940964  0
0.973297 -0.882003  0
1.1372 -0.350529  0
0.599097 -0.350529  0
0 0  0
0 0  0
0 0  0
0 0  0
0 0  0
0 0  0
0 0  0
0 0  0
0 0  0
0 0  0
0 0  0
0 0  0
0 0  0
0 0  0
0 0  0
0 0  0
0 0  0
0 0  0
0 0  0
0 0  0
0 0  0
0 0  0
0 0  0
0 0  0
0 0  0
0 0  0
0 0  0
0 0  0
0 0  0
0 0  0
0 0  0
0 0  0
0 0  0
0 0  0
0 0  0
0.0341309 -0.747914  0
0.102692 -0.75668  0
0.172145 -0.775772  0
0.242699 -0.802692  0
0.316727 -0.843463  0
0.395318 -0.88755  0
0.463326 -0.920832  0
0.52428 -0.997007  0
0.58899 -1.08358  0
0.636519 -1.11733  0
0.652375 -1.10397  0
0.76138 -1.02247  0
0.435193 -0.470482  0
0 0  0
0 0  0
0 0  0
0 0  0
0 0  0
0 0  0
0 0  0
0 0  0
0 0  0
0 0  0
0 0  0
0 0  0
0 0  0
0 0  0
0 0  0
0 0  0
0 0  0
0 0  0
0 0  0
0 0  0
0 0  0
0 0  0
0 0  0
0 0  0
0 0  0
0 0  0
0 0  0
0 0  0
0 0  0
0 0  0
0 0  0
0 0  0
0 0  0
0 0  0
0 0  0
0 0  0
0 0  0
0.0332912 -0.828427  0
0.0995519 -0.837381  0
0.165987 -0.857551  0
0.232711 -0.884777  0
0.300213 -0.929493  0
0.367778 -0.974266  0
0.444192 -0.998493  0
0.502061 -1.05147  0
0.516837 -1.12189  0
0.569996 -1.12754  0
0.637765 -0.551984  0
0.326187 -0.551984  0
0 0  0
0 0  0
0 0  0
0 0  0
0 0  0
0 0  0
0 0  0
0 0  0
0 0  0
0 0  0
0 0  0
0 0  0
0 0  0
0 0  0
0 0  0
0 0  0
0 0  0
0 0  0
0 0  0
0 0  0
0 0  0
0 0  0
0 0  0
0 0  0
0 0  0
0 0  0
0 0  0
0 0  0
0 0  0
0 0  0
0 0  0
0 0  0
0 0  0
0 0  0
0 0  0
0 0  0
0 0  0
0 0  0
0.0333432 -0.901654  0
0.103569 -0.913884  0
0.171395 -0.928616  0
0.231747 -0.954095  0
0.283814 -0.993042  0
0.306473 -1.01424  0
0.409208 -1.02791  0
0.542215 -0.533122  0
0.544662 -0.560947  0
0.258419 -0.560947  0
0 0  0
0 0  0
0 0  0
0 0  0
0 0  0
0 0  0
0 0  0
0 0  0
0 0  0
0 0  0
0 0  0
0 0  0
0 0  0
0 0  0
0 0  0
0 0  0
0 0  0
0 0  0
0 0  0
0 0  0
0 0  0
0 0  0
0 0  0
0 0  0
0 0  0
0 0  0
0 0  0
0 0  0
0 0  0
0 0  0
0 0  0
0 0  0
0 0  0
0 0  0
0 0  0
0 0  0
0 0  0
0 0  0
0 0  0
0 0  0
0.0412281 -0.467499  0
0.11585 -0.475383  0
0.187763 -0.47978  0
0.259818 -0.491752  0
0.299183 -0.50785  0
0.305742 -0.50712  0
0.153236 -0.50712  0
0 0  0
0 0  0
0 0  0
0 0  0
0 0  0
0 0  0
0 0  0
0 0  0
0 0  0
0 0  0
0 0  0
0 0  0
0 0  0
0 0  0
0 0  0
0 0  0
0 0  0
0 0  0
0 0  0
0 0  0
0 0  0
0 0  0
0 0  0
0 0  0
0 0  0
0 0  0
0 0  0
0 0  0
0 0  0
0 0  0
0 0  0
0 0  0
0 0  0
0 0  0
0 0  0
0 0  0
0 0  0
0 0  0
0 0  0
0 0  0
0 0  0
0 0  0
0 0  0
0 0  0
0 0  0
0 0  0
0 0  0
0 0  0
0 0  0
0 0  0
0 0  0
0 0  0
0 0  0
0 0  0
0 0  0
0 0  0
0 0  0
0 0  0
0 0  0
0 0  0
0 0  0
0 0  0
0 0  0
0 0  0
0 0  0
0 0  0
0 0  0
0 0  0
0 0  0
0 0  0
0 0  0
0 0  0
0 0  0
0 0  0
0 0  0
0 0  0
0 0  0
0 0  0
0 0  0
0 0  0
0 0  0
0 0  0
0 0  0
0 0  0
0 0  0
0 0  0
0 0  0
0 0  0
0 0  0
0 0  0
0 0  0
0 0  0
0 0  0
0 0  0
0 0  0
0 0  0
0 0  0
0 0  0
0 0  0
0 0  0
0 0  0
0 0  0
0 0  0
0 0  0
0 0  0
0 0  0
0 0  0
0 0  0
0 0  0
0 0  0
0 0  0
0 0  0
0 0  0
0 0  0
0 0  0
0 0  0
0 0  0
0 0  0
0 0  0
0 0  0
0 0  0
0 0  0
0 0  0
0 0  0
0 0  0
0 0  0
0 0  0
0 0  0
0 0  0
0 0  0
0 0  0
0 0  0
0 0  0
0 0  0
0 0  0
0 0  0
0 0  0
0 0  0
0 0  0
0 0  0
0 0  0
0 0  0
0 0  0
0 0  0
0 0  0
0 0  0
0 0  0
0 0  0
0 0  0
0 0  0
0 0  0
0 0  0
0 0  0
0 0  0
0 0  0
0 0  0
0 0  0
0 0  0
0 0  0
0 0  0
0 0  0
0 0  0
0 0  0
0 0  0
0 0  0
0 0  0
0 0  0
0 0  0
0 0  0
0 0  0
0 0  0
0 0  0
0 0  0
0 0  0
0 0  0
0 0  0
0 0  0
0 0  0
0 0  0
0 0  0
0 0  0
0 0  0
0 0  0
0 0  0
0 0  0
0 0  0
0 0  0
0 0  0
0 0  0
0 0  0
0 0  0
0 0  0
0 0  0
0 0  0
0 0  0
0 0  0
0 0  0
0 0  0
0 0  0
0 0  0
0 0  0
0 0  0
0 0  0
0 0  0
0 0  0
0 0  0
0 0  0
0 0  0
0 0  0
0 0  0
0 0  0
0 0  0
0 0  0
0 0  0
0 0  0
0 0  0
0 0  0
0 0  0
0 0  0
0 0  0
0 0  0
0 0  0
0 0  0
0 0  0
0 0  0
0 0  0
0 0  0
0 0  0
0 0  0
0 0  0
0 0  0
0 0  0
0 0  0
0 0  0
0 0  0
0 0  0
0 0  0
0 0  0
0 0  0
0 0  0
0 0  0
0 0  0
0 0  0
0 0  0
0 0  0
0 0  0
0 0  0
0 0  0
0 0  0
0 0  0
0 0  0
0 0  0
0 0  0
0 0  0
0 0  0
0 0  0
0 0  0
0 0  0
0 0  0
0 0  0
0 0  0
0 0  0
0 0  0
0 0  0
0 0  0
0 0  0
0 0  0
0 0  0
0 0  0
0 0  0
0 0  0
0 0  0
0 0  0
0 0  0
0 0  0
0 0  0
0 0  0
0 0  0
0 0  0
0 0  0
0 0  0
0 0  0
0 0  0
0 0  0
0 0  0
0 0  0
0 0  0
0 0  0
0 0  0
0 0  0
0 0  0
0 0  0
0 0  0
0 0  0
0 0  0
0 0  0
0 0  0
0 0  0
0 0  0
0 0  0
0 0  0
0 0  0
0 0  0
0 0  0
0 0  0
0 0  0
0 0  0
0 0  0
0 0  0
0 0  0
0 0  0
0 0  0
0 0  0
0 0  0
0 0  0
0 0  0
0 0  0
0 0  0
0 0  0
0 0  0
0 0  0
0 0  0
0 0  0
0 0  0
0 0  0
0 0  0
0 0  0
0 0  0
0 0  0
0 0  0
0 0  0
0 0  0
0 0  0
0 0  0
0 0  0
0 0  0
0 0  0
0 0  0
0 0  0
0 0  0
0 0  0
0 0  0
0 0  0
0 0  0
0 0  0
0 0  0
0 0  0
0 0  0
0 0  0
0 0  0
0 0  0
0 0  0
0 0  0
0 0  0
0 0  0
0 0  0
0 0  0
0 0  0
0 0  0
0 0  0
0 0  0
0 0  0
0 0  0
0 0  0
0 0  0
0 0  0
0 0  0
0 0  0
0 0  0
0 0  0
0 0  0
0 0  0
0 0  0
0 0  0
0 0  0
0 0  0
0 0  0
0 0  0
0 0  0
0 0  0
0 0  0
0 0  0
0 0  0
0 0  0
0 0  0
0 0  0
0 0  0
0 0  0
0 0  0
0 0  0
0 0  0
0 0  0
0 0  0
0 0  0
0 0  0
0 0  0
0 0  0
0 0  0
0 0  0
0 0  0
0 0  0
0 0  0
0 0  0
0 0  0
0 0  0
0 0  0
0 0  0
0 0  0
0 0  0
0 0  0
0 0  0
0 0  0
0 0  0
0 0  0
0 0  0
0 0  0
0 0  0
0 0  0
0 0  0
0 0  0
0 0  0
0 0  0
0 0  0
0 0  0
0 0  0
0 0  0
0 0  0
0 0  0
0 0  0
0 0  0
0 0  0
0 0  0
0 0  0
0 0  0
0 0  0
0 0  0
0 0  0
0 0  0
0 0  0
0 0  0
0 0  0
0 0  0
0 0  0
0 0  0
0 0  0
0 0  0
0 0  0
0 0  0
0 0  0
0 0  0
0 0  0
0 0  0
0 0  0
0 0  0
0 0  0
0 0  0
0 0  0
0 0  0
0 0  0
0 0  0
0 0  0
0 0  0
0 0  0
0 0  0
0 0  0
0 0  0
0 0  0
0 0  0
0 0  0
0 0  0
0 0  0
0 0  0
0 0  0
0 0  0
0 0  0
0 0  0
0 0  0
0 0  0
0 0  0
0 0  0
0 0  0
0 0  0
0 0  0
0 0  0
0 0  0
0 0  0
0 0  0
0 0  0
0 0  0
0 0  0
0 0  0
0 0  0
0 0  0

SCALARS pressure double 1
LOOKUP_TABLE default
2.07633
2.07675
2.07624
2.07303
2.06577
2.05216
2.02895
1.99192
1.93605
1.85633
1.74949
1.61594
1.46094
1.2942
1.1284
0.975623
0.840135
0.722055
0.621934
0.536936
0.461478
0.391878
0.327177
0.252383
0.151438
0
0
0
0
0
0
0
0
0
0
0
0
0
0
0
0
0
0
0
0
0
0
0
0
0
1.86026
1.86036
1.85914
1.85506
1.84662
1.83149
1.80653
1.76744
1.70902
1.62591
1.5148
1.37658
1.21788
1.04971
0.886067
0.741643
0.616152
0.50559
0.412786
0.335963
0.265868
0.196906
0.146581
0.0865252
0
-0.00229695
0
0
0
0
0
0
0
0
0
0
0
0
0
0
0
0
0
0
0
0
0
0
0
0
1.63344
1.63303
1.63063
1.62501
1.61445
1.59673
1.56877
1.52627
1.46346
1.37421
1.25481
1.10698
0.940326
0.769009
0.608607
0.484134
0.380922
0.281966
0.199893
0.141918
0.0846603
0.00145871
-0.008102
-0.0491424
0
0
0
0
0
0
0
0
0
0
0
0
0
0
0
0
0
0
0
0
0
0
0
0
0
0
1.39717
1.39602
1.39226
1.38453
1.37097
1.34952
1.31726
1.27003
1.20124
1.10355
0.972297
0.809862
0.630941
0.458127
0.29694
0.216215
0.159227
0.0732314
-0.0112211
-0.0276768
-0.0539539
0
0
0
0
0
0
0
0
0
0
0
0
0
0
0
0
0
0
0
0
0
0
0
0
0
0
0
0
0
1.15391
1.15193
1.14672
1.13648
1.11924
1.09284
1.05479
1.00173
0.926113
0.81883
0.674717
0.493745
0.294478
0.142178
-0.0531361
-0.0381823
0
-0.0731874
0
0
0
0
0
0
0
0
0
0
0
0
0
0
0
0
0
0
0
0
0
0
0
0
0
0
0
0
0
0
0
0
0.906348
0.903756
0.897236
0.884571
0.863393
0.830697
0.785003
0.725625
0.643829
0.527786
0.377968
0.18137
-0.0641522
-0.0671117
0
0
0
0
0
0
0
0
0
0
0
0
0
0
0
0
0
0
0
0
0
0
0
0
0
0
0
0
0
0
0
0
0
0
0
0
0.65714
0.65438
0.647165
0.633116
0.608709
0.568479
0.511585
0.44732
0.363081
0.235564
0.112487
-0.0468322
0
0
0
0
0
0
0
0
0
0
0
0
0
0
0
0
0
0
0
0
0
0
0
0
0
0
0
0
0
0
0
0
0
0
0
0
0
0
0.408176
0.406126
0.399417
0.386625
0.362265
0.313893
0.234738
0.172804
0.102493
-0.0592752
-0.0764994
0
0
0
0
0
0
0
0
0
0
0
0
0
0
0
0
0
0
0
0
0
0
0
0
0
0
0
0
0
0
0
0
0
0
0
0
0
0
0
0.16007
0.160594
0.154953
0.148495
0.134805
0.0838494
-0.0434028
-0.0795965
-0.0520292
0
0
0
0
0
0
0
0
0
0
0
0
0
0
0
0
0
0
0
0
0
0
0
0
0
0
0
0
0
0
0
0
0
0
0
0
0
0
0
0
0
-0.0705288
-0.0611077
-0.0712576
-0.0642697
-0.0374006
-0.0493532
0
0
0
0
0
0
0
0
0
0
0
0
0
0
0
0
0
0
0
0
0
0
0
0
0
0
0
0
0
0
0
0
0
0
0
0
0
0
0
0
0
0
0
0
0
0
0
0
0
0
0
0
0
0
0
0
0
0
0
0
0
0
0
0
0
0
0
0
0
0
0
0
0
0
0
0
0
0
0
0
0
0
0
0
0
0
0
0
0
0
0
0
0
0
0
0
0
0
0
0
0
0
0
0
0
0
0
0
0
0
0
0
0
0
0
0
0
0
0
0
0
0
0
0
0
0
0
0
0
0
0
0
0
0
0
0
0
0
0
0
0
0
0
0
0
0
0
0
0
0
0
0
0
0
0
0
0
0
0
0
0
0
0
0
0
0
0
0
0
0
0
0
0
0
0
0
0
0
0
0
0
0
0
0
0
0
0
0
0
0
0
0
0
0
0
0
0
0
0
0
0
0
0
0
0
0
0
0
0
0
0
0
0
0
0
0
0
0
0
0
0
0
0
0
0
0
0
0
0
0
0
0
0
0
0
0
0
0
0
0
0
0
0
0
0
0
0
0
0
0
0
0
0
0
0
0
0
0
0
0
0
0
0
0
0
0
0
0
0
0
0
0
0
0
0
0
0
0
0
0
0
0
0
0
0
0
0
0
0
0
0
0
0
0
0
0
0
0
0
0
0
0
0
0
0
0
0
0
0
0
0
0
0
0
0
0
0
0
0
0
0
0
0
0
0
0
0
0
0
0
0
0
0
0
0
0
0
0
0
0
0
0
0
0
0
0
0
0
0
0
0
0
0
0
0
0
0
0
0
0
0
0
0
0
0
0
0
0
0
0
0
0
0
0
0
0
0
0
0
0
0
0
0
0
0
0
0
0
0
0
0
0
0
0
0
0
0
0
0
0
0
0
0
0
0
0
0
0
0
0
0
0
0
0
0
0
0
0
0
0
0
0
0
0
0
0
0
0
0
0
0
0
0
0
0
0
0
0
0
0
0
0
0
0
0
0
0
0
0
0
0
0
0
0
0
0
0
0
0
0
0
0
0
0
0
0
0
0
0
0
0
0
0
0
0
0
0
0
0
0
0
0
0
0
0
0
0
0
0
0
0
0
0
0
0
0
0
0
0
0
0
0
0
0
0
0
0
0
0
0
0
0
0
0
0
0
0
0
0
0
0
0
0
0
0
0
0
0
0
0
0
0
0
0
0
0
0
0
0
0
0
0
0
0
SCALARS rhs double 1
LOOKUP_TABLE default
-5.03285
-5.25416
-5.32607
-5.40316
-5.50664
-5.64011
-5.80512
-5.99732
-6.20016
-6.37973
-6.48866
-6.4836
-6.3422
-6.06894
-5.71727
-5.40686
-5.1574
-4.9581
-4.84774
-4.78412
-4.74287
-4.75139
-4.76708
-4.80019
-5.04834
3.07285
0
0
0
0
0
0
0
0
0
0
0
0
0
0
0
0
0
0
0
0
0
0
0
0
-0.0900249
-0.285394
-0.339257
-0.397221
-0.479107
-0.588699
-0.729038
-0.897441
-1.07751
-1.23241
-1.31041
-1.27053
-1.10136
-0.794398
-0.401499
-0.117176
0.090341
0.263482
0.304502
0.340424
0.387645
0.453466
0.404291
0.0928433
4.35869
1.65217
0
0
0
0
0
0
0
0
0
0
0
0
0
0
0
0
0
0
0
0
0
0
0
0
-0.0961323
-0.270704
-0.319671
-0.374346
-0.453072
-0.561188
-0.70439
-0.882984
-1.07633
-1.23126
-1.27549
-1.16205
-0.917759
-0.484819
0.0396463
0.267808
0.442375
0.792314
0.645195
0.628095
0.415449
9.2301
5.79053
3.07285
0
0
0
0
0
0
0
0
0
0
0
0
0
0
0
0
0
0
0
0
0
0
0
0
0
0
-0.0781651
-0.230262
-0.274577
-0.325889
-0.400412
-0.504941
-0.649516
-0.840658
-1.04956
-1.1924
-1.16295
-0.89108
-0.530866
0.157814
1.04602
0.928106
0.833893
1.59438
13.7122
7.32836
3.07285
0
0
0
0
0
0
0
0
0
0
0
0
0
0
0
0
0
0
0
0
0
0
0
0
0
0
0
0
0
-0.0546063
-0.182034
-0.220986
-0.267206
-0.334351
-0.427369
-0.563119
-0.761071
-0.97691
-1.08403
-0.908158
-0.371622
0.612752
1.58434
29.8581
21.1821
9.2301
1.65217
0
0
0
0
0
0
0
0
0
0
0
0
0
0
0
0
0
0
0
0
0
0
0
0
0
0
0
0
0
0
0
0
-0.0306964
-0.132294
-0.165714
-0.204391
-0.262399
-0.331219
-0.438349
-0.622112
-0.825182
-0.880991
-0.395622
0.871255
3.09884
25.9201
0
0
0
0
0
0
0
0
0
0
0
0
0
0
0
0
0
0
0
0
0
0
0
0
0
0
0
0
0
0
0
0
0
0
0
0
-0.0117368
-0.0886379
-0.116791
-0.142853
-0.193866
-0.235789
-0.276418
-0.413198
-0.586328
0.035857
0.998598
7.19892
26.3021
0
0
0
0
0
0
0
0
0
0
0
0
0
0
0
0
0
0
0
0
0
0
0
0
0
0
0
0
0
0
0
0
0
0
0
0
0
-0.00232598
-0.0590379
-0.076722
-0.0891571
-0.133743
-0.165961
0.386851
0.334332
0.356324
1.99228
6.8443
27.2717
0
0
0
0
0
0
0
0
0
0
0
0
0
0
0
0
0
0
0
0
0
0
0
0
0
0
0
0
0
0
0
0
0
0
0
0
0
0
0.4549
0.431076
0.424123
0.443096
0.439673
0.502875
3.20595
4.56574
5.98596
8.49533
41.2731
0
0
0
0
0
0
0
0
0
0
0
0
0
0
0
0
0
0
0
0
0
0
0
0
0
0
0
0
0
0
0
0
0
0
0
0
0
0
0
4.59893
4.56326
4.71188
5.92948
5.98422
7.78758
9.09454
10.208
11.1703
21.7759
3.2041
0
0
0
0
0
0
0
0
0
0
0
0
0
0
0
0
0
0
0
0
0
0
0
0
0
0
0
0
0
0
0
0
0
0
0
0
0
0
0
7.92952
10.0992
10.1145
8.86149
11.2589
12.4355
10.8064
8.57914
8.60392
43.2779
0
0
0
0
0
0
0
0
0
0
0
0
0
0
0
0
0
0
0
0
0
0
0
0
0
0
0
0
0
0
0
0
0
0
0
0
0
0
0
0
13.2058
10.8439
11.0393
13.0106
10.7272
10.2862
9.48307
9.57063
8.67562
33.2233
0
0
0
0
0
0
0
0
0
0
0
0
0
0
0
0
0
0
0
0
0
0
0
0
0
0
0
0
0
0
0
0
0
0
0
0
0
0
0
0
8.71388
9.82855
9.83715
7.65861
8.9401
7.02241
6.34758
6.44313
5.90605
26.1906
0
0
0
0
0
0
0
0
0
0
0
0
0
0
0
0
0
0
0
0
0
0
0
0
0
0
0
0
0
0
0
0
0
0
0
0
0
0
0
0
7.061
5.55892
5.71513
6.83869
5.56628
5.6724
5.42452
5.43401
4.26976
17.1298
0
0
0
0
0
0
0
0
0
0
0
0
0
0
0
0
0
0
0
0
0
0
0
0
0
0
0
0
0
0
0
0
0
0
0
0
0
0
0
0
6.55202
6.55536
6.55982
5.31204
5.40986
6.30896
5.08555
5.09432
5.2091
10.3371
0
0
0
0
0
0
0
0
0
0
0
0
0
0
0
0
0
0
0
0
0
0
0
0
0
0
0
0
0
0
0
0
0
0
0
0
0
0
0
0
5.52783
5.53996
5.54196
5.54121
5.54439
4.52522
5.16545
5.22779
16.4546
0
0
0
0
0
0
0
0
0
0
0
0
0
0
0
0
0
0
0
0
0
0
0
0
0
0
0
0
0
0
0
0
0
0
0
0
0
0
0
0
0
3.60674
3.66202
3.98033
3.98143
3.98244
3.98396
3.23505
3.31189
11.5415
0
0
0
0
0
0
0
0
0
0
0
0
0
0
0
0
0
0
0
0
0
0
0
0
0
0
0
0
0
0
0
0
0
0
0
0
0
0
0
0
0
6.01719
6.36025
5.75447
5.75462
5.75506
5.75536
5.75588
5.76119
8.30564
0
0
0
0
0
0
0
0
0
0
0
0
0
0
0
0
0
0
0
0
0
0
0
0
0
0
0
0
0
0
0
0
0
0
0
0
0
0
0
0
0
3.29611
2.74112
2.74112
2.74112
2.74112
2.74112
2.74112
2.74112
2.74112
0
0
0
0
0
0
0
0
0
0
0
0
0
0
0
0
0
0
0
0
0
0
0
0
0
0
0
0
0
0
0
0
0
0
0
0
0
0
0
0
0
0
0
0
0
0
0
0
0
0
0
0
0
0
0
0
0
0
0
0
0
0
0
0
0
0
0
0
0
0
0
0
0
0
0
0
0
0
0
0
0
0
0
0
0
0
0
0
0
0
0
