# vtk DataFile Version 4.0
Nusif Fluid VTK output
ASCII
DATASET STRUCTURED_POINTS
DIMENSIONS 50 20 1
ORIGIN 0 0 0 
SPACING 0.2 0.2 1
POINT_DATA 1000 

VECTORS velocity double
0.0406374 -0.0385715  0
0.121247 -0.038921  0
0.201427 -0.0392505  0
0.281834 -0.0393751  0
0.361905 -0.0391106  0
0.441117 -0.0386674  0
0.519341 -0.0382368  0
0.596991 -0.0381703  0
0.674849 -0.0385553  0
0.753775 -0.0393337  0
0.83454 -0.0404501  0
0.917435 -0.0415411  0
1.00155 -0.0417159  0
1.08419 -0.0400971  0
1.16248 -0.037418  0
1.23719 -0.0365277  0
1.31199 -0.0375164  0
1.38903 -0.0387875  0
1.46759 -0.039045  0
1.54515 -0.0377834  0
1.61823 -0.0345723  0
1.68672 -0.0332025  0
1.7517 -0.0310567  0
1.81203 -0.028553  0
1.86886 -0.0275581  0
1.92252 -0.0253827  0
1.97288 -0.0242621  0
2.02135 -0.0234926  0
2.07018 -0.0246235  0
2.12128 -0.0257498  0
2.17283 -0.0250881  0
2.22204 -0.0234023  0
2.26696 -0.0207953  0
2.30671 -0.0182416  0
2.34153 -0.0158537  0
2.37298 -0.0148776  0
2.40491 -0.0163354  0
2.44314 -0.0211812  0
2.49085 -0.0258068  0
2.53159 -0.0142118  0
2.53812 0.0083956  0
2.51131 0.0191384  0
2.46951 0.0233769  0
2.44649 0  0
1.22325 0  0
0 0  0
0 0  0
0 0  0
0 0  0
0 0  0
0.0404067 -0.116582  0
0.120842 -0.117545  0
0.201229 -0.118571  0
0.282025 -0.118869  0
0.362293 -0.117754  0
0.441184 -0.11606  0
0.51845 -0.114357  0
0.594521 -0.113896  0
0.670386 -0.114771  0
0.746942 -0.116905  0
0.82525 -0.120314  0
0.906517 -0.124251  0
0.990581 -0.125668  0
1.07263 -0.119321  0
1.1474 -0.109773  0
1.21631 -0.106349  0
1.28479 -0.109513  0
1.35655 -0.114142  0
1.43174 -0.116003  0
1.50864 -0.11384  0
1.58033 -0.101849  0
1.64797 -0.100625  0
1.71463 -0.0938428  0
1.77578 -0.0858104  0
1.83302 -0.082935  0
1.88755 -0.0767561  0
1.93924 -0.0735026  0
1.98893 -0.0709796  0
2.03811 -0.0737084  0
2.08844 -0.0766523  0
2.13919 -0.075062  0
2.18837 -0.0703723  0
2.23395 -0.0628868  0
2.27499 -0.0555079  0
2.31157 -0.048551  0
2.34466 -0.0452807  0
2.37654 -0.0483059  0
2.41123 -0.0607006  0
2.45436 -0.0756895  0
2.49928 -0.0485488  0
2.51534 0.0212215  0
2.51505 0.0341332  0
2.51919 0.0467539  0
2.48284 0.0233769  0
1.22325 0  0
0 0  0
0 0  0
0 0  0
0 0  0
0 0  0
0.0399415 -0.1952  0
0.11977 -0.19685  0
0.200221 -0.198939  0
0.28179 -0.199694  0
0.362465 -0.196684  0
0.440445 -0.192782  0
0.51507 -0.188246  0
0.587507 -0.187275  0
0.659115 -0.187579  0
0.730915 -0.191135  0
0.804601 -0.196773  0
0.882959 -0.206057  0
0.968416 -0.212039  0
1.04807 -0.193299  0
1.1161 -0.177205  0
1.17937 -0.169702  0
1.24088 -0.174752  0
1.30562 -0.183977  0
1.37549 -0.189808  0
1.45176 -0.19178  0
1.52579 -0.168557  0
1.589 -0.164053  0
1.6643 -0.17166  0
1.7258 -0.129932  0
1.78643 -0.155961  0
1.84515 -0.116267  0
1.89639 -0.136197  0
1.95523 -0.116103  0
2.00185 -0.123662  0
2.05483 -0.129287  0
2.1015 -0.119138  0
2.1474 -0.120646  0
2.19335 -0.103427  0
2.23505 -0.0969963  0
2.27504 -0.0829199  0
2.31113 -0.079364  0
2.3452 -0.0794585  0
2.37155 -0.0898642  0
2.39112 -0.108517  0
2.39987 -0.0686738  0
2.45322 -0.021511  0
2.5045 0.0149948  0
2.51081 0.0233769  0
1.2596 0.0233769  0
0 0  0
0 0  0
0 0  0
0 0  0
0 0  0
0 0  0
0.0389809 -0.27281  0
0.117137 -0.275362  0
0.196956 -0.279609  0
0.280334 -0.282877  0
0.36121 -0.273946  0
0.434872 -0.266016  0
0.504516 -0.258083  0
0.57166 -0.255785  0
0.637866 -0.255609  0
0.704285 -0.260017  0
0.772207 -0.268181  0
0.845282 -0.284737  0
0.926165 -0.298325  0
1.00685 -0.266343  0
1.07002 -0.234672  0
1.1361 -0.240871  0
1.20583 -0.234127  0
1.26554 -0.248344  0
1.31862 -0.247678  0
1.3406 -0.231445  0
1.44555 -0.217002  0
1.59659 -0.0966306  0
1.64034 -0.108874  0
1.71751 -0.0726749  0
1.77864 -0.100584  0
1.83153 -0.0648933  0
1.90011 -0.0869565  0
1.94285 -0.0686156  0
2.01162 -0.0745775  0
2.04942 -0.078384  0
2.09679 -0.0691643  0
2.13957 -0.0736758  0
2.1794 -0.0613354  0
2.22394 -0.05973  0
2.26427 -0.0502226  0
2.30839 -0.0489609  0
2.34659 -0.0474881  0
2.38269 -0.0503448  0
2.37511 -0.0586346  0
2.37558 -0.0343369  0
1.19994 -0.0343369  0
0 0  0
0 0  0
0 0  0
0 0  0
0 0  0
0 0  0
0 0  0
0 0  0
0 0  0
0.0373055 -0.348155  0
0.11224 -0.351655  0
0.189091 -0.358928  0
0.273185 -0.369961  0
0.342385 -0.33614  0
0.416246 -0.350783  0
0.483313 -0.30945  0
0.548921 -0.336543  0
0.615777 -0.307275  0
0.678451 -0.336797  0
0.742993 -0.323196  0
0.795368 -0.354503  0
0.827092 -0.340478  0
0.913623 -0.322508  0
1.05874 -0.129823  0
1.13765 -0.140991  0
1.20456 -0.131371  0
1.269 -0.139722  0
1.29462 -0.134828  0
1.32149 -0.115723  0
0.670299 -0.115723  0
0 0  0
0 0  0
0 0  0
0 0  0
0 0  0
0 0  0
0 0  0
0 0  0
0 0  0
0 0  0
0 0  0
0 0  0
0 0  0
0 0  0
0 0  0
0 0  0
0 0  0
0 0  0
0 0  0
0 0  0
0 0  0
0 0  0
0 0  0
0 0  0
0 0  0
0 0  0
0 0  0
0 0  0
0 0  0
0.0366208 -0.42169  0
0.106146 -0.421946  0
0.162057 -0.420882  0
0.185064 -0.41457  0
0.295812 -0.38752  0
0.399504 -0.200157  0
0.475464 -0.163493  0
0.548458 -0.192308  0
0.613813 -0.163029  0
0.687346 -0.190344  0
0.745763 -0.171924  0
0.793684 -0.193113  0
0.804217 -0.170239  0
0.413546 -0.170239  0
0 0  0
0 0  0
0 0  0
0 0  0
0 0  0
0 0  0
0 0  0
0 0  0
0 0  0
0 0  0
0 0  0
0 0  0
0 0  0
0 0  0
0 0  0
0 0  0
0 0  0
0 0  0
0 0  0
0 0  0
0 0  0
0 0  0
0 0  0
0 0  0
0 0  0
0 0  0
0 0  0
0 0  0
0 0  0
0 0  0
0 0  0
0 0  0
0 0  0
0 0  0
0 0  0
0 0  0
0.0348907 -0.229155  0
0.0989351 -0.227425  0
0.141917 -0.221944  0
0.170405 -0.207285  0
0.0925321 -0.207285  0
0 0  0
0 0  0
0 0  0
0 0  0
0 0  0
0 0  0
0 0  0
0 0  0
0 0  0
0 0  0
0 0  0
0 0  0
0 0  0
0 0  0
0 0  0
0 0  0
0 0  0
0 0  0
0 0  0
0 0  0
0 0  0
0 0  0
0 0  0
0 0  0
0 0  0
0 0  0
0 0  0
0 0  0
0 0  0
0 0  0
0 0  0
0 0  0
0 0  0
0 0  0
0 0  0
0 0  0
0 0  0
0 0  0
0 0  0
0 0  0
0 0  0
0 0  0
0 0  0
0 0  0
0 0  0
0 0  0
0 0  0
0 0  0
0 0  0
0 0  0
0 0  0
0 0  0
0 0  0
0 0  0
0 0  0
0 0  0
0 0  0
0 0  0
0 0  0
0 0  0
0 0  0
0 0  0
0 0  0
0 0  0
0 0  0
0 0  0
0 0  0
0 0  0
0 0  0
0 0  0
0 0  0
0 0  0
0 0  0
0 0  0
0 0  0
0 0  0
0 0  0
0 0  0
0 0  0
0 0  0
0 0  0
0 0  0
0 0  0
0 0  0
0 0  0
0 0  0
0 0  0
0 0  0
0 0  0
0 0  0
0 0  0
0 0  0
0 0  0
0 0  0
0 0  0
0 0  0
0 0  0
0 0  0
0 0  0
0 0  0
0 0  0
0 0  0
0 0  0
0 0  0
0 0  0
0 0  0
0 0  0
0 0  0
0 0  0
0 0  0
0 0  0
0 0  0
0 0  0
0 0  0
0 0  0
0 0  0
0 0  0
0 0  0
0 0  0
0 0  0
0 0  0
0 0  0
0 0  0
0 0  0
0 0  0
0 0  0
0 0  0
0 0  0
0 0  0
0 0  0
0 0  0
0 0  0
0 0  0
0 0  0
0 0  0
0 0  0
0 0  0
0 0  0
0 0  0
0 0  0
0 0  0
0 0  0
0 0  0
0 0  0
0 0  0
0 0  0
0 0  0
0 0  0
0 0  0
0 0  0
0 0  0
0 0  0
0 0  0
0 0  0
0 0  0
0 0  0
0 0  0
0 0  0
0 0  0
0 0  0
0 0  0
0 0  0
0 0  0
0 0  0
0 0  0
0 0  0
0 0  0
0 0  0
0 0  0
0 0  0
0 0  0
0 0  0
0 0  0
0 0  0
0 0  0
0 0  0
0 0  0
0 0  0
0 0  0
0 0  0
0 0  0
0 0  0
0 0  0
0 0  0
0 0  0
0 0  0
0 0  0
0 0  0
0 0  0
0 0  0
0 0  0
0 0  0
0 0  0
0 0  0
0 0  0
0 0  0
0 0  0
0 0  0
0 0  0
0 0  0
0 0  0
0 0  0
0 0  0
0 0  0
0 0  0
0 0  0
0 0  0
0 0  0
0 0  0
0 0  0
0 0  0
0 0  0
0 0  0
0 0  0
0 0  0
0 0  0
0 0  0
0 0  0
0 0  0
0 0  0
0 0  0
0 0  0
0 0  0
0 0  0
0 0  0
0 0  0
0 0  0
0 0  0
0 0  0
0 0  0
0 0  0
0 0  0
0 0  0
0 0  0
0 0  0
0 0  0
0 0  0
0 0  0
0 0  0
0 0  0
0 0  0
0 0  0
0 0  0
0 0  0
0 0  0
0 0  0
0 0  0
0 0  0
0 0  0
0 0  0
0 0  0
0 0  0
0 0  0
0 0  0
0 0  0
0 0  0
0 0  0
0 0  0
0 0  0
0 0  0
0 0  0
0 0  0
0 0  0
0 0  0
0 0  0
0 0  0
0 0  0
0 0  0
0 0  0
0 0  0
0 0  0
0 0  0
0 0  0
0 0  0
0 0  0
0 0  0
0 0  0
0 0  0
0 0  0
0 0  0
0 0  0
0 0  0
0 0  0
0 0  0
0 0  0
0 0  0
0 0  0
0 0  0
0 0  0
0 0  0
0 0  0
0 0  0
0 0  0
0 0  0
0 0  0
0 0  0
0 0  0
0 0  0
0 0  0
0 0  0
0 0  0
0 0  0
0 0  0
0 0  0
0 0  0
0 0  0
0 0  0
0 0  0
0 0  0
0 0  0
0 0  0
0 0  0
0 0  0
0 0  0
0 0  0
0 0  0
0 0  0
0 0  0
0 0  0
0 0  0
0 0  0
0 0  0
0 0  0
0 0  0
0 0  0
0 0  0
0 0  0
0 0  0
0 0  0
0 0  0
0 0  0
0 0  0
0 0  0
0 0  0
0 0  0
0 0  0
0 0  0
0 0  0
0 0  0
0 0  0
0 0  0
0 0  0
0 0  0
0 0  0
0 0  0
0 0  0
0 0  0
0 0  0
0 0  0
0 0  0
0 0  0
0 0  0
0 0  0
0 0  0
0 0  0
0 0  0
0 0  0
0 0  0
0 0  0
0 0  0
0 0  0
0 0  0
0 0  0
0 0  0
0 0  0
0 0  0
0 0  0
0 0  0
0 0  0
0 0  0
0 0  0
0 0  0
0 0  0
0 0  0
0 0  0
0 0  0
0 0  0
0 0  0
0 0  0
0 0  0
0 0  0
0 0  0
0 0  0
0 0  0
0 0  0
0 0  0
0 0  0
0 0  0
0 0  0
0 0  0
0 0  0
0 0  0
0 0  0
0 0  0
0 0  0
0 0  0
0 0  0
0 0  0
0 0  0
0 0  0
0 0  0
0 0  0
0 0  0
0 0  0
0 0  0
0 0  0
0 0  0
0 0  0
0 0  0
0 0  0
0 0  0
0 0  0
0 0  0
0 0  0
0 0  0
0 0  0
0 0  0
0 0  0
0 0  0
0 0  0
0 0  0
0 0  0
0 0  0
0 0  0
0 0  0
0 0  0
0 0  0
0 0  0
0 0  0
0 0  0
0 0  0
0 0  0
0 0  0
0 0  0
0 0  0
0 0  0
0 0  0
0 0  0
0 0  0
0 0  0
0 0  0
0 0  0
0 0  0
0 0  0
0 0  0
0 0  0
0 0  0
0 0  0
0 0  0
0 0  0
0 0  0
0 0  0
0 0  0
0 0  0
0 0  0
0 0  0
0 0  0
0 0  0
0 0  0
0 0  0
0 0  0
0 0  0
0 0  0
0 0  0
0 0  0
0 0  0
0 0  0
0 0  0
0 0  0
0 0  0
0 0  0
0 0  0
0 0  0
0 0  0
0 0  0
0 0  0
0 0  0
0 0  0
0 0  0
0 0  0
0 0  0
0 0  0
0 0  0
0 0  0
0 0  0
0 0  0
0 0  0
0 0  0
0 0  0
0 0  0
0 0  0
0 0  0
0 0  0
0 0  0
0 0  0
0 0  0
0 0  0
0 0  0
0 0  0
0 0  0
0 0  0
0 0  0
0 0  0
0 0  0
0 0  0
0 0  0
0 0  0
0 0  0
0 0  0
0 0  0
0 0  0
0 0  0
0 0  0
0 0  0
0 0  0
0 0  0
0 0  0
0 0  0
0 0  0
0 0  0
0 0  0
0 0  0
0 0  0
0 0  0
0 0  0
0 0  0
0 0  0
0 0  0
0 0  0
0 0  0
0 0  0
0 0  0
0 0  0
0 0  0
0 0  0
0 0  0
0 0  0
0 0  0
0 0  0
0 0  0
0 0  0
0 0  0
0 0  0
0 0  0
0 0  0
0 0  0
0 0  0
0 0  0
0 0  0
0 0  0
0 0  0
0 0  0
0 0  0
0 0  0
0 0  0
0 0  0
0 0  0
0 0  0
0 0  0
0 0  0
0 0  0
0 0  0
0 0  0
0 0  0
0 0  0
0 0  0
0 0  0
0 0  0
0 0  0
0 0  0
0 0  0
0 0  0
0 0  0
0 0  0
0 0  0
0 0  0
0 0  0
0 0  0
0 0  0
0 0  0
0 0  0
0 0  0
0 0  0
0 0  0
0 0  0
0 0  0
0 0  0
0 0  0
0 0  0
0 0  0
0 0  0
0 0  0
0 0  0
0 0  0
0 0  0
0 0  0
0 0  0
0 0  0
0 0  0
0 0  0
0 0  0
0 0  0
0 0  0
0 0  0
0 0  0
0 0  0
0 0  0
0 0  0
0 0  0
0 0  0
0 0  0
0 0  0
0 0  0
0 0  0
0 0  0
0 0  0
0 0  0
0 0  0
0 0  0
0 0  0
0 0  0
0 0  0
0 0  0
0 0  0
0 0  0
0 0  0
0 0  0
0 0  0
0 0  0
0 0  0
0 0  0
0 0  0
0 0  0
0 0  0
0 0  0
0 0  0
0 0  0
0 0  0
0 0  0
0 0  0
0 0  0
0 0  0
0 0  0
0 0  0
0 0  0
0 0  0
0 0  0
0 0  0
0 0  0
0 0  0
0 0  0
0 0  0
0 0  0
0 0  0
0 0  0
0 0  0
0 0  0
0 0  0
0 0  0
0 0  0
0 0  0
0 0  0
0 0  0
0 0  0
0 0  0
0 0  0
0 0  0
0 0  0
0 0  0
0 0  0
0 0  0
0 0  0
0 0  0
0 0  0
0 0  0
0 0  0
0 0  0
0 0  0
0 0  0
0 0  0
0 0  0
0 0  0
0 0  0
0 0  0
0 0  0
0 0  0
0 0  0
0 0  0
0 0  0
0 0  0
0 0  0
0 0  0
0 0  0
0 0  0
0 0  0

SCALARS pressure double 1
LOOKUP_TABLE default
0.864074
0.856191
0.843316
0.825967
0.806304
0.786825
0.768661
0.751955
0.735566
0.718286
0.698155
0.673163
0.642504
0.608157
0.576485
0.550649
0.527424
0.50245
0.471497
0.4326
0.390051
0.362319
0.348159
0.337991
0.335671
0.331717
0.332475
0.332353
0.33355
0.334976
0.334713
0.33517
0.335128
0.335881
0.336457
0.336882
0.33535
0.32932
0.313663
0.283285
0.249443
0.273269
0.375544
0.652318
0
0
0
0
0
0
0.664002
0.656437
0.642781
0.62376
0.601519
0.581709
0.563816
0.548507
0.53352
0.518025
0.499081
0.474638
0.441381
0.401957
0.369034
0.346968
0.327653
0.30639
0.277495
0.235099
0.175058
0.14961
0.147137
0.134045
0.142232
0.132604
0.139579
0.137238
0.138718
0.142123
0.139919
0.142578
0.14224
0.144874
0.145839
0.148045
0.148162
0.145597
0.135436
0.0968242
0.00141918
0.00767522
-0.0287223
0
0
0
0
0
0
0
0.470266
0.462472
0.447233
0.423232
0.393402
0.373795
0.355994
0.345073
0.331969
0.321003
0.30456
0.282737
0.243931
0.187958
0.152328
0.143018
0.131191
0.118611
0.0976458
0.0561534
-0.0756072
-0.0872029
-0.0398598
-0.0898732
-0.0286814
-0.0801094
-0.0387744
-0.0575279
-0.0540377
-0.0405007
-0.0551543
-0.0409236
-0.0470478
-0.0370116
-0.0383523
-0.0311864
-0.0297563
-0.0251613
0
-0.0155487
0
0
0
0
0
0
0
0
0
0
0.283303
0.275783
0.259499
0.226915
0.173195
0.163584
0.141839
0.145251
0.129379
0.130602
0.115634
0.106018
0.0600166
-0.0464885
-0.0904537
-0.0563215
-0.0639917
-0.0609759
-0.0620992
-0.0298606
0
0
0
0
0
0
0
0
0
0
0
0
0
0
0
0
0
0
0
0
0
0
0
0
0
0
0
0
0
0
0.104181
0.0981499
0.0872533
0.0503745
-0.097192
-0.0351584
-0.0996056
-0.0342877
-0.0916044
-0.0431749
-0.0807104
-0.037387
-0.0625127
0
0
0
0
0
0
0
0
0
0
0
0
0
0
0
0
0
0
0
0
0
0
0
0
0
0
0
0
0
0
0
0
0
0
0
0
0
-0.0701254
-0.0765982
-0.0612886
-0.0192786
0
0
0
0
0
0
0
0
0
0
0
0
0
0
0
0
0
0
0
0
0
0
0
0
0
0
0
0
0
0
0
0
0
0
0
0
0
0
0
0
0
0
0
0
0
0
0
0
0
0
0
0
0
0
0
0
0
0
0
0
0
0
0
0
0
0
0
0
0
0
0
0
0
0
0
0
0
0
0
0
0
0
0
0
0
0
0
0
0
0
0
0
0
0
0
0
0
0
0
0
0
0
0
0
0
0
0
0
0
0
0
0
0
0
0
0
0
0
0
0
0
0
0
0
0
0
0
0
0
0
0
0
0
0
0
0
0
0
0
0
0
0
0
0
0
0
0
0
0
0
0
0
0
0
0
0
0
0
0
0
0
0
0
0
0
0
0
0
0
0
0
0
0
0
0
0
0
0
0
0
0
0
0
0
0
0
0
0
0
0
0
0
0
0
0
0
0
0
0
0
0
0
0
0
0
0
0
0
0
0
0
0
0
0
0
0
0
0
0
0
0
0
0
0
0
0
0
0
0
0
0
0
0
0
0
0
0
0
0
0
0
0
0
0
0
0
0
0
0
0
0
0
0
0
0
0
0
0
0
0
0
0
0
0
0
0
0
0
0
0
0
0
0
0
0
0
0
0
0
0
0
0
0
0
0
0
0
0
0
0
0
0
0
0
0
0
0
0
0
0
0
0
0
0
0
0
0
0
0
0
0
0
0
0
0
0
0
0
0
0
0
0
0
0
0
0
0
0
0
0
0
0
0
0
0
0
0
0
0
0
0
0
0
0
0
0
0
0
0
0
0
0
0
0
0
0
0
0
0
0
0
0
0
0
0
0
0
0
0
0
0
0
0
0
0
0
0
0
0
0
0
0
0
0
0
0
0
0
0
0
0
0
0
0
0
0
0
0
0
0
0
0
0
0
0
0
0
0
0
0
0
0
0
0
0
0
0
0
0
0
0
0
0
0
0
0
0
0
0
0
0
0
0
0
0
0
0
0
0
0
0
0
0
0
0
0
0
0
0
0
0
0
0
0
0
0
0
0
0
0
0
0
0
0
0
0
0
0
0
0
0
0
0
0
0
0
0
0
0
0
0
0
0
0
0
0
0
0
0
0
0
0
0
0
0
0
0
0
0
0
0
0
0
0
0
0
0
0
0
0
0
0
0
0
0
0
0
0
0
0
0
0
0
0
0
0
0
0
0
0
0
0
0
0
0
0
0
0
0
0
0
0
0
0
0
0
0
0
0
0
0
0
0
0
0
0
0
0
0
0
0
0
0
0
0
0
0
0
0
0
0
0
0
0
0
0
0
0
0
0
0
0
0
0
0
0
0
0
0
0
0
0
0
0
0
0
0
0
0
0
0
0
0
0
0
0
0
0
0
0
0
0
0
0
0
0
0
0
0
0
0
0
0
0
0
0
0
0
0
0
0
0
0
0
0
0
0
0
0
0
0
0
0
0
0
0
0
0
0
0
0
0
0
0
0
0
0
0
0
0
0
0
0
0
0
0
0
0
0
0
0
0
0
0
0
0
0
0
0
0
0
0
0
0
0
0
0
0
0
0
0
0
0
0
0
0
0
0
0
0
0
0
0
0
0
0
0
0
0
0
0
0
0
0
0
0
0
0
0
0
0
0
0
0
0
0
0
0
0
0
0
0
0
0
0
0
0
0
0
0
0
0
0
0
0
0
SCALARS rhs double 1
LOOKUP_TABLE default
-4.77218
-4.94557
-4.97583
-4.99667
-5.01464
-5.01655
-5.01248
-5.0194
-5.02876
-5.04273
-5.06773
-5.08917
-5.10134
-5.08061
-5.03347
-5.02068
-5.03533
-5.04958
-5.04684
-5.02827
-5.00379
-4.97819
-4.92544
-4.90235
-4.877
-4.86084
-4.84304
-4.84764
-4.86227
-4.86512
-4.8512
-4.82734
-4.80224
-4.78014
-4.76862
-4.76992
-4.79233
-4.8337
-4.82366
-4.74814
-4.75887
-4.67864
-5.74415
-0.0897846
0
0
0
0
0
0
0.121441
-0.0158299
-0.0272226
-0.0484633
-0.0379814
-0.027826
-0.0192459
-0.0040498
-0.00518792
-0.0154346
-0.0286128
-0.0581836
-0.0737137
-0.0292633
0.0332502
0.0589405
0.0338619
0.0154298
0.0149338
0.0223228
-0.0276623
-0.0284793
0.0849073
0.0325136
0.117502
0.0755719
0.130285
0.104383
0.100682
0.114709
0.115156
0.15166
0.164802
0.186511
0.191084
0.188092
0.164858
0.134128
0.358461
0.432386
2.41629
-0.060051
-0.4596
0
0
0
0
0
0
0
0.075246
-0.0230405
-0.046799
-0.0559575
-0.0680185
-0.024433
0.00195868
0.0199591
0.0231576
0.0184301
-0.00235117
-0.0480724
-0.0960109
-0.0101798
0.00697118
0.0494776
0.0110587
-0.00544472
-0.0110918
0.0661316
-0.666486
-0.623551
-1.22605
-1.3236
-0.613607
2.69782
2.71944
2.56216
10.7265
10.912
9.86849
8.4677
6.53933
4.46037
4.81003
5.89216
5.87775
3.89362
-0.060051
-0.0897846
0
0
0
0
0
0
0
0
0
0
0.0558548
-0.0156312
-0.0422825
-0.0588319
-0.172559
-0.0349057
-0.0705782
0.0193611
-0.0473065
0.00792918
-0.0609307
-0.079761
0.0173366
-1.08834
4.01626
6.19732
7.90949
10.7708
31.5784
25.1946
21.0289
16.247
13.5584
10.8402
10.7865
8.4957
6.05141
2.40646
0
0
0
0
0
0
0
0
0
0
0
0
0
0
0
0
0
0
0
0
0
0
-0.0224439
-0.0786006
-0.0778895
-0.119303
-0.721325
-1.18441
-1.14385
-0.410794
1.02224
5.34615
5.6026
5.37662
8.22211
8.97228
43.8307
32.8547
19.5017
9.00999
0
0
0
0
0
0
0
0
0
0
0
0
0
0
0
0
0
0
0
0
0
0
0
0
0
0
0
0
0
0
0
0
6.06532
6.01455
5.9657
5.40632
4.81609
4.65051
4.54086
5.49725
6.68708
4.04255
4.68643
4.81997
12.4974
35.3186
0
0
0
0
0
0
0
0
0
0
0
0
0
0
0
0
0
0
0
0
0
0
0
0
0
0
0
0
0
0
0
0
0
0
0
0
1.47614
1.54411
2.09799
2.47435
3.77929
5.12603
6.33856
5.10183
2.09579
1.47098
2.53607
14.3387
26.3021
0
0
0
0
0
0
0
0
0
0
0
0
0
0
0
0
0
0
0
0
0
0
0
0
0
0
0
0
0
0
0
0
0
0
0
0
0
2.59543
2.54951
1.62039
1.22694
0.49828
0.777197
0.916648
3.70181
7.89906
8.9678
11.6117
27.2717
0
0
0
0
0
0
0
0
0
0
0
0
0
0
0
0
0
0
0
0
0
0
0
0
0
0
0
0
0
0
0
0
0
0
0
0
0
0
2.45787
2.59584
4.01582
4.53242
6.43299
7.47839
9.23983
7.89527
5.98596
8.49533
41.2731
0
0
0
0
0
0
0
0
0
0
0
0
0
0
0
0
0
0
0
0
0
0
0
0
0
0
0
0
0
0
0
0
0
0
0
0
0
0
0
9.36633
9.33066
8.04142
9.25902
7.69325
7.78758
9.09454
10.208
11.1703
21.7759
3.2041
0
0
0
0
0
0
0
0
0
0
0
0
0
0
0
0
0
0
0
0
0
0
0
0
0
0
0
0
0
0
0
0
0
0
0
0
0
0
0
7.92952
10.0992
10.1145
8.86149
11.2589
12.4355
10.8064
8.57914
8.60392
43.2779
0
0
0
0
0
0
0
0
0
0
0
0
0
0
0
0
0
0
0
0
0
0
0
0
0
0
0
0
0
0
0
0
0
0
0
0
0
0
0
0
13.2058
10.8439
11.0393
13.0106
10.7272
10.2862
9.48307
9.57063
8.67562
33.2233
0
0
0
0
0
0
0
0
0
0
0
0
0
0
0
0
0
0
0
0
0
0
0
0
0
0
0
0
0
0
0
0
0
0
0
0
0
0
0
0
8.71388
9.82855
9.83715
7.65861
8.9401
7.02241
6.34758
6.44313
5.90605
26.1906
0
0
0
0
0
0
0
0
0
0
0
0
0
0
0
0
0
0
0
0
0
0
0
0
0
0
0
0
0
0
0
0
0
0
0
0
0
0
0
0
7.061
5.55892
5.71513
6.83869
5.56628
5.6724
5.42452
5.43401
4.26976
17.1298
0
0
0
0
0
0
0
0
0
0
0
0
0
0
0
0
0
0
0
0
0
0
0
0
0
0
0
0
0
0
0
0
0
0
0
0
0
0
0
0
6.55202
6.55536
6.55982
5.31204
5.40986
6.30896
5.08555
5.09432
5.2091
10.3371
0
0
0
0
0
0
0
0
0
0
0
0
0
0
0
0
0
0
0
0
0
0
0
0
0
0
0
0
0
0
0
0
0
0
0
0
0
0
0
0
5.52783
5.53996
5.54196
5.54121
5.54439
4.52522
5.16545
5.22779
16.4546
0
0
0
0
0
0
0
0
0
0
0
0
0
0
0
0
0
0
0
0
0
0
0
0
0
0
0
0
0
0
0
0
0
0
0
0
0
0
0
0
0
3.60674
3.66202
3.98033
3.98143
3.98244
3.98396
3.23505
3.31189
11.5415
0
0
0
0
0
0
0
0
0
0
0
0
0
0
0
0
0
0
0
0
0
0
0
0
0
0
0
0
0
0
0
0
0
0
0
0
0
0
0
0
0
6.01719
6.36025
5.75447
5.75462
5.75506
5.75536
5.75588
5.76119
8.30564
0
0
0
0
0
0
0
0
0
0
0
0
0
0
0
0
0
0
0
0
0
0
0
0
0
0
0
0
0
0
0
0
0
0
0
0
0
0
0
0
0
3.29611
2.74112
2.74112
2.74112
2.74112
2.74112
2.74112
2.74112
2.74112
0
0
0
0
0
0
0
0
0
0
0
0
0
0
0
0
0
0
0
0
0
0
0
0
0
0
0
0
0
0
0
0
0
0
0
0
0
0
0
0
0
0
0
0
0
0
0
0
0
0
0
0
0
0
0
0
0
0
0
0
0
0
0
0
0
0
0
0
0
0
0
0
0
0
0
0
0
0
0
0
0
0
0
0
0
0
0
0
0
0
0
