# vtk DataFile Version 4.0
Nusif Fluid VTK output
ASCII
DATASET STRUCTURED_POINTS
DIMENSIONS 50 20 1
ORIGIN 0 0 0 
SPACING 0.2 0.2 1
POINT_DATA 1000 

VECTORS velocity double
0.0417844 -0.0412463  0
0.124665 -0.0415564  0
0.207131 -0.0418863  0
0.290116 -0.0422696  0
0.373703 -0.0426797  0
0.458057 -0.0431565  0
0.543426 -0.0438484  0
0.630422 -0.0449414  0
0.719898 -0.0464331  0
0.812262 -0.0479493  0
0.906803 -0.0487273  0
1.00201 -0.0486793  0
1.09789 -0.049474  0
1.19674 -0.051704  0
1.30029 -0.0542262  0
1.40648 -0.0543895  0
1.50829 -0.0498627  0
1.59936 -0.0436734  0
1.67911 -0.0385583  0
1.75036 -0.0351812  0
1.81605 -0.0330102  0
1.87814 -0.0315871  0
1.93772 -0.0305015  0
1.99546 -0.0297502  0
2.05194 -0.029249  0
2.10811 -0.0294449  0
2.16562 -0.0305878  0
2.22526 -0.0315803  0
2.2814 -0.0270851  0
2.32688 -0.0209231  0
2.36037 -0.0150993  0
2.38465 -0.0117024  0
2.40605 -0.0122181  0
2.43222 -0.0164867  0
2.46666 -0.020477  0
2.49868 -0.0140661  0
2.50438 0.00583933  0
2.48345 0.0125594  0
2.47863 -0.00899927  0
1.24381 -0.00843617  0
0 0  0
0 0  0
0 0  0
0 0  0
0 0  0
0 0  0
0 0  0
0 0  0
0 0  0
0 0  0
0.041702 -0.124776  0
0.12461 -0.125563  0
0.207227 -0.126467  0
0.290247 -0.127457  0
0.373725 -0.128465  0
0.457647 -0.129684  0
0.54204 -0.131328  0
0.627565 -0.134343  0
0.715465 -0.138893  0
0.80658 -0.143567  0
0.899538 -0.145321  0
0.990982 -0.143533  0
1.08054 -0.144913  0
1.17237 -0.151839  0
1.27036 -0.16057  0
1.37278 -0.161643  0
1.47051 -0.14715  0
1.55638 -0.128343  0
1.63136 -0.113647  0
1.69961 -0.104616  0
1.76398 -0.098672  0
1.82601 -0.0950872  0
1.88607 -0.0916786  0
1.94445 -0.0897443  0
2.00151 -0.0878516  0
2.05818 -0.0887324  0
2.117 -0.0926779  0
2.18015 -0.0973366  0
2.23862 -0.0809978  0
2.28401 -0.0629298  0
2.31874 -0.0463675  0
2.34526 -0.0362898  0
2.3679 -0.0367165  0
2.39234 -0.047655  0
2.4237 -0.0601628  0
2.46046 -0.0482097  0
2.48391 0.00703782  0
2.48753 0.0261464  0
2.4865 -0.0179985  0
1.24325 -0.0174354  0
0 0  0
0 0  0
0 0  0
0 0  0
0 0  0
0 0  0
0 0  0
0 0  0
0 0  0
0 0  0
0.0415947 -0.209452  0
0.124491 -0.210612  0
0.207308 -0.212028  0
0.290433 -0.213275  0
0.373553 -0.214386  0
0.456358 -0.215678  0
0.538457 -0.21705  0
0.620533 -0.221381  0
0.705086 -0.229507  0
0.794145 -0.238321  0
0.88435 -0.238904  0
0.96913 -0.231355  0
1.04804 -0.230726  0
1.12821 -0.243173  0
1.21725 -0.261394  0
1.31159 -0.262697  0
1.40156 -0.23892  0
1.48135 -0.207326  0
1.55215 -0.185543  0
1.61919 -0.173083  0
1.68438 -0.164835  0
1.74813 -0.159769  0
1.8102 -0.154189  0
1.87039 -0.150878  0
1.92875 -0.147198  0
1.98605 -0.148417  0
2.04518 -0.155998  0
2.10975 -0.166794  0
2.17072 -0.134773  0
2.22006 -0.106408  0
2.26208 -0.082158  0
2.2976 -0.0650777  0
2.32736 -0.0628504  0
2.35135 -0.0724716  0
2.36873 -0.0866207  0
2.37598 -0.0682871  0
2.41988 -0.0329451  0
2.49772 0.013587  0
2.50909 -0.00899927  0
1.24325 -0.00899927  0
0 0  0
0 0  0
0 0  0
0 0  0
0 0  0
0 0  0
0 0  0
0 0  0
0 0  0
0 0  0
0.041315 -0.294169  0
0.123978 -0.295914  0
0.207186 -0.298125  0
0.290391 -0.298806  0
0.371979 -0.298834  0
0.452093 -0.299436  0
0.530035 -0.298561  0
0.606469 -0.303622  0
0.68604 -0.316605  0
0.772741 -0.332213  0
0.857534 -0.325222  0
0.933716 -0.311191  0
1.0048 -0.306054  0
1.07525 -0.323619  0
1.15314 -0.353012  0
1.23256 -0.348676  0
1.31502 -0.327931  0
1.40136 -0.286986  0
1.47736 -0.255239  0
1.55279 -0.248398  0
1.62152 -0.225968  0
1.69071 -0.234102  0
1.75441 -0.208166  0
1.81696 -0.222167  0
1.87819 -0.198023  0
1.93361 -0.212846  0
1.9885 -0.208122  0
2.00881 -0.202075  0
2.08678 -0.181898  0
2.19009 -0.0644015  0
2.23816 -0.0508898  0
2.28506 -0.0404902  0
2.32817 -0.038352  0
2.35993 -0.0413034  0
2.36157 -0.046935  0
2.36319 -0.0341435  0
1.18799 -0.0341435  0
0 0  0
0 0  0
0 0  0
0 0  0
0 0  0
0 0  0
0 0  0
0 0  0
0 0  0
0 0  0
0 0  0
0 0  0
0 0  0
0.0405365 -0.37825  0
0.122224 -0.381155  0
0.205491 -0.384834  0
0.286844 -0.382014  0
0.364496 -0.380224  0
0.439747 -0.378743  0
0.512492 -0.37519  0
0.58356 -0.379777  0
0.656394 -0.398087  0
0.734062 -0.420321  0
0.81465 -0.406418  0
0.888887 -0.383023  0
0.961619 -0.380623  0
1.02957 -0.390025  0
1.05843 -0.395925  0
1.15746 -0.391195  0
1.28611 -0.186298  0
1.35984 -0.16433  0
1.45778 -0.144785  0
1.5348 -0.144751  0
1.6146 -0.126795  0
1.67907 -0.137833  0
1.74786 -0.115154  0
1.81123 -0.131283  0
1.87062 -0.109428  0
1.93839 -0.123717  0
1.96582 -0.114214  0
1.99563 -0.101037  0
1.0044 -0.101037  0
0 0  0
0 0  0
0 0  0
0 0  0
0 0  0
0 0  0
0 0  0
0 0  0
0 0  0
0 0  0
0 0  0
0 0  0
0 0  0
0 0  0
0 0  0
0 0  0
0 0  0
0 0  0
0 0  0
0 0  0
0 0  0
0.0399453 -0.45995  0
0.121888 -0.465691  0
0.196699 -0.461127  0
0.276225 -0.469302  0
0.34913 -0.446173  0
0.420512 -0.462107  0
0.493688 -0.440385  0
0.558994 -0.453589  0
0.620328 -0.461071  0
0.644341 -0.461624  0
0.734619 -0.454318  0
0.875237 -0.208333  0
0.96273 -0.209856  0
1.01768 -0.209444  0
1.04695 -0.197963  0
0.529217 -0.197963  0
0 0  0
0 0  0
0 0  0
0 0  0
0 0  0
0 0  0
0 0  0
0 0  0
0 0  0
0 0  0
0 0  0
0 0  0
0 0  0
0 0  0
0 0  0
0 0  0
0 0  0
0 0  0
0 0  0
0 0  0
0 0  0
0 0  0
0 0  0
0 0  0
0 0  0
0 0  0
0 0  0
0 0  0
0 0  0
0 0  0
0 0  0
0 0  0
0 0  0
0 0  0
0.0438418 -0.249948  0
0.118911 -0.253844  0
0.200862 -0.246971  0
0.265437 -0.258007  0
0.344771 -0.236183  0
0.418515 -0.253649  0
0.485494 -0.234185  0
0.56735 -0.245455  0
0.605685 -0.242542  0
0.632611 -0.230812  0
0.32217 -0.230812  0
0 0  0
0 0  0
0 0  0
0 0  0
0 0  0
0 0  0
0 0  0
0 0  0
0 0  0
0 0  0
0 0  0
0 0  0
0 0  0
0 0  0
0 0  0
0 0  0
0 0  0
0 0  0
0 0  0
0 0  0
0 0  0
0 0  0
0 0  0
0 0  0
0 0  0
0 0  0
0 0  0
0 0  0
0 0  0
0 0  0
0 0  0
0 0  0
0 0  0
0 0  0
0 0  0
0 0  0
0 0  0
0 0  0
0 0  0
0 0  0
0 0  0
0 0  0
0 0  0
0 0  0
0 0  0
0 0  0
0 0  0
0 0  0
0 0  0
0 0  0
0 0  0
0 0  0
0 0  0
0 0  0
0 0  0
0 0  0
0 0  0
0 0  0
0 0  0
0 0  0
0 0  0
0 0  0
0 0  0
0 0  0
0 0  0
0 0  0
0 0  0
0 0  0
0 0  0
0 0  0
0 0  0
0 0  0
0 0  0
0 0  0
0 0  0
0 0  0
0 0  0
0 0  0
0 0  0
0 0  0
0 0  0
0 0  0
0 0  0
0 0  0
0 0  0
0 0  0
0 0  0
0 0  0
0 0  0
0 0  0
0 0  0
0 0  0
0 0  0
0 0  0
0 0  0
0 0  0
0 0  0
0 0  0
0 0  0
0 0  0
0 0  0
0 0  0
0 0  0
0 0  0
0 0  0
0 0  0
0 0  0
0 0  0
0 0  0
0 0  0
0 0  0
0 0  0
0 0  0
0 0  0
0 0  0
0 0  0
0 0  0
0 0  0
0 0  0
0 0  0
0 0  0
0 0  0
0 0  0
0 0  0
0 0  0
0 0  0
0 0  0
0 0  0
0 0  0
0 0  0
0 0  0
0 0  0
0 0  0
0 0  0
0 0  0
0 0  0
0 0  0
0 0  0
0 0  0
0 0  0
0 0  0
0 0  0
0 0  0
0 0  0
0 0  0
0 0  0
0 0  0
0 0  0
0 0  0
0 0  0
0 0  0
0 0  0
0 0  0
0 0  0
0 0  0
0 0  0
0 0  0
0 0  0
0 0  0
0 0  0
0 0  0
0 0  0
0 0  0
0 0  0
0 0  0
0 0  0
0 0  0
0 0  0
0 0  0
0 0  0
0 0  0
0 0  0
0 0  0
0 0  0
0 0  0
0 0  0
0 0  0
0 0  0
0 0  0
0 0  0
0 0  0
0 0  0
0 0  0
0 0  0
0 0  0
0 0  0
0 0  0
0 0  0
0 0  0
0 0  0
0 0  0
0 0  0
0 0  0
0 0  0
0 0  0
0 0  0
0 0  0
0 0  0
0 0  0
0 0  0
0 0  0
0 0  0
0 0  0
0 0  0
0 0  0
0 0  0
0 0  0
0 0  0
0 0  0
0 0  0
0 0  0
0 0  0
0 0  0
0 0  0
0 0  0
0 0  0
0 0  0
0 0  0
0 0  0
0 0  0
0 0  0
0 0  0
0 0  0
0 0  0
0 0  0
0 0  0
0 0  0
0 0  0
0 0  0
0 0  0
0 0  0
0 0  0
0 0  0
0 0  0
0 0  0
0 0  0
0 0  0
0 0  0
0 0  0
0 0  0
0 0  0
0 0  0
0 0  0
0 0  0
0 0  0
0 0  0
0 0  0
0 0  0
0 0  0
0 0  0
0 0  0
0 0  0
0 0  0
0 0  0
0 0  0
0 0  0
0 0  0
0 0  0
0 0  0
0 0  0
0 0  0
0 0  0
0 0  0
0 0  0
0 0  0
0 0  0
0 0  0
0 0  0
0 0  0
0 0  0
0 0  0
0 0  0
0 0  0
0 0  0
0 0  0
0 0  0
0 0  0
0 0  0
0 0  0
0 0  0
0 0  0
0 0  0
0 0  0
0 0  0
0 0  0
0 0  0
0 0  0
0 0  0
0 0  0
0 0  0
0 0  0
0 0  0
0 0  0
0 0  0
0 0  0
0 0  0
0 0  0
0 0  0
0 0  0
0 0  0
0 0  0
0 0  0
0 0  0
0 0  0
0 0  0
0 0  0
0 0  0
0 0  0
0 0  0
0 0  0
0 0  0
0 0  0
0 0  0
0 0  0
0 0  0
0 0  0
0 0  0
0 0  0
0 0  0
0 0  0
0 0  0
0 0  0
0 0  0
0 0  0
0 0  0
0 0  0
0 0  0
0 0  0
0 0  0
0 0  0
0 0  0
0 0  0
0 0  0
0 0  0
0 0  0
0 0  0
0 0  0
0 0  0
0 0  0
0 0  0
0 0  0
0 0  0
0 0  0
0 0  0
0 0  0
0 0  0
0 0  0
0 0  0
0 0  0
0 0  0
0 0  0
0 0  0
0 0  0
0 0  0
0 0  0
0 0  0
0 0  0
0 0  0
0 0  0
0 0  0
0 0  0
0 0  0
0 0  0
0 0  0
0 0  0
0 0  0
0 0  0
0 0  0
0 0  0
0 0  0
0 0  0
0 0  0
0 0  0
0 0  0
0 0  0
0 0  0
0 0  0
0 0  0
0 0  0
0 0  0
0 0  0
0 0  0
0 0  0
0 0  0
0 0  0
0 0  0
0 0  0
0 0  0
0 0  0
0 0  0
0 0  0
0 0  0
0 0  0
0 0  0
0 0  0
0 0  0
0 0  0
0 0  0
0 0  0
0 0  0
0 0  0
0 0  0
0 0  0
0 0  0
0 0  0
0 0  0
0 0  0
0 0  0
0 0  0
0 0  0
0 0  0
0 0  0
0 0  0
0 0  0
0 0  0
0 0  0
0 0  0
0 0  0
0 0  0
0 0  0
0 0  0
0 0  0
0 0  0
0 0  0
0 0  0
0 0  0
0 0  0
0 0  0
0 0  0
0 0  0
0 0  0
0 0  0
0 0  0
0 0  0
0 0  0
0 0  0
0 0  0
0 0  0
0 0  0
0 0  0
0 0  0
0 0  0
0 0  0
0 0  0
0 0  0
0 0  0
0 0  0
0 0  0
0 0  0
0 0  0
0 0  0
0 0  0
0 0  0
0 0  0
0 0  0
0 0  0
0 0  0
0 0  0
0 0  0
0 0  0
0 0  0
0 0  0
0 0  0
0 0  0
0 0  0
0 0  0
0 0  0
0 0  0
0 0  0
0 0  0
0 0  0
0 0  0
0 0  0
0 0  0
0 0  0
0 0  0
0 0  0
0 0  0
0 0  0
0 0  0
0 0  0
0 0  0
0 0  0
0 0  0
0 0  0
0 0  0
0 0  0
0 0  0
0 0  0
0 0  0
0 0  0
0 0  0
0 0  0
0 0  0
0 0  0
0 0  0
0 0  0
0 0  0
0 0  0
0 0  0
0 0  0
0 0  0
0 0  0
0 0  0
0 0  0
0 0  0
0 0  0
0 0  0
0 0  0
0 0  0
0 0  0
0 0  0
0 0  0
0 0  0
0 0  0
0 0  0
0 0  0
0 0  0
0 0  0
0 0  0
0 0  0
0 0  0
0 0  0
0 0  0
0 0  0
0 0  0
0 0  0
0 0  0
0 0  0
0 0  0
0 0  0
0 0  0
0 0  0
0 0  0
0 0  0
0 0  0
0 0  0
0 0  0
0 0  0
0 0  0
0 0  0
0 0  0
0 0  0
0 0  0
0 0  0
0 0  0
0 0  0
0 0  0
0 0  0
0 0  0
0 0  0
0 0  0
0 0  0
0 0  0
0 0  0
0 0  0
0 0  0
0 0  0
0 0  0
0 0  0
0 0  0
0 0  0
0 0  0
0 0  0
0 0  0
0 0  0
0 0  0
0 0  0
0 0  0
0 0  0
0 0  0
0 0  0
0 0  0
0 0  0
0 0  0
0 0  0
0 0  0
0 0  0
0 0  0
0 0  0
0 0  0
0 0  0
0 0  0
0 0  0
0 0  0
0 0  0
0 0  0
0 0  0
0 0  0
0 0  0
0 0  0
0 0  0
0 0  0
0 0  0
0 0  0
0 0  0
0 0  0
0 0  0
0 0  0
0 0  0
0 0  0
0 0  0
0 0  0
0 0  0
0 0  0
0 0  0
0 0  0
0 0  0
0 0  0
0 0  0
0 0  0
0 0  0
0 0  0
0 0  0
0 0  0
0 0  0
0 0  0
0 0  0
0 0  0
0 0  0
0 0  0
0 0  0
0 0  0
0 0  0
0 0  0
0 0  0
0 0  0
0 0  0
0 0  0
0 0  0
0 0  0
0 0  0
0 0  0
0 0  0
0 0  0
0 0  0
0 0  0
0 0  0
0 0  0
0 0  0
0 0  0
0 0  0
0 0  0
0 0  0
0 0  0
0 0  0
0 0  0
0 0  0
0 0  0
0 0  0
0 0  0
0 0  0
0 0  0
0 0  0
0 0  0
0 0  0
0 0  0
0 0  0
0 0  0
0 0  0
0 0  0
0 0  0
0 0  0
0 0  0
0 0  0
0 0  0
0 0  0
0 0  0
0 0  0
0 0  0
0 0  0
0 0  0
0 0  0
0 0  0
0 0  0
0 0  0
0 0  0
0 0  0
0 0  0
0 0  0
0 0  0
0 0  0
0 0  0
0 0  0
0 0  0
0 0  0
0 0  0
0 0  0
0 0  0

SCALARS pressure double 1
LOOKUP_TABLE default
0.757629
0.756752
0.755945
0.75392
0.750652
0.745425
0.738036
0.728164
0.715143
0.698168
0.677562
0.654714
0.6309
0.605539
0.576501
0.543868
0.512382
0.4862
0.466608
0.452947
0.443174
0.436062
0.429599
0.423225
0.414809
0.403502
0.38646
0.362288
0.334335
0.316145
0.306294
0.300853
0.295837
0.286019
0.265
0.227396
0.17426
0.116623
0
0
0
0
0
0
0
0
0
0
0
0
0.565626
0.565335
0.564816
0.563134
0.560104
0.555013
0.547848
0.538027
0.524496
0.506388
0.483611
0.45949
0.435794
0.410341
0.379001
0.341715
0.31132
0.289168
0.273712
0.26407
0.256597
0.252275
0.246835
0.242995
0.235809
0.226983
0.210702
0.183102
0.144475
0.130374
0.125752
0.124316
0.123883
0.119535
0.104439
0.067676
0.00034723
0
0.0125536
0
0
0
0
0
0
0
0
0
0
0
0.386398
0.386472
0.386266
0.385354
0.382397
0.378057
0.371138
0.361663
0.34771
0.326728
0.298678
0.272687
0.251142
0.227402
0.190741
0.136286
0.112754
0.100666
0.0918253
0.0904428
0.0845294
0.0876079
0.0807794
0.0848676
0.0771235
0.0760746
0.0630072
0.0323518
-0.0488228
-0.0419847
-0.0347583
-0.0306205
-0.0225078
-0.0154051
-0.011876
-0.0290816
0
0
0
0
0
0
0
0
0
0
0
0
0
0
0.219209
0.219525
0.219778
0.220421
0.217085
0.215013
0.208349
0.201121
0.187858
0.162195
0.120542
0.0935048
0.0812678
0.0669025
0.0254565
-0.0954854
-0.0824425
-0.0741088
-0.0816622
-0.0625873
-0.0817049
-0.0506296
-0.0809665
-0.0439334
-0.0723984
-0.0462219
-0.0526318
-0.04648
0
0
0
0
0
0
0
0
0
0
0
0
0
0
0
0
0
0
0
0
0
0
0.0644589
0.0643616
0.0639134
0.0701454
0.0628057
0.0683534
0.0596166
0.05957
0.0514441
0.0223011
-0.0619217
-0.0880579
-0.0736158
-0.0557214
-0.052245
0
0
0
0
0
0
0
0
0
0
0
0
0
0
0
0
0
0
0
0
0
0
0
0
0
0
0
0
0
0
0
0
0
0
0
-0.0788435
-0.0809956
-0.0909653
-0.0559969
-0.0949221
-0.0514809
-0.0864987
-0.0612287
-0.0537037
-0.0508606
0
0
0
0
0
0
0
0
0
0
0
0
0
0
0
0
0
0
0
0
0
0
0
0
0
0
0
0
0
0
0
0
0
0
0
0
0
0
0
0
0
0
0
0
0
0
0
0
0
0
0
0
0
0
0
0
0
0
0
0
0
0
0
0
0
0
0
0
0
0
0
0
0
0
0
0
0
0
0
0
0
0
0
0
0
0
0
0
0
0
0
0
0
0
0
0
0
0
0
0
0
0
0
0
0
0
0
0
0
0
0
0
0
0
0
0
0
0
0
0
0
0
0
0
0
0
0
0
0
0
0
0
0
0
0
0
0
0
0
0
0
0
0
0
0
0
0
0
0
0
0
0
0
0
0
0
0
0
0
0
0
0
0
0
0
0
0
0
0
0
0
0
0
0
0
0
0
0
0
0
0
0
0
0
0
0
0
0
0
0
0
0
0
0
0
0
0
0
0
0
0
0
0
0
0
0
0
0
0
0
0
0
0
0
0
0
0
0
0
0
0
0
0
0
0
0
0
0
0
0
0
0
0
0
0
0
0
0
0
0
0
0
0
0
0
0
0
0
0
0
0
0
0
0
0
0
0
0
0
0
0
0
0
0
0
0
0
0
0
0
0
0
0
0
0
0
0
0
0
0
0
0
0
0
0
0
0
0
0
0
0
0
0
0
0
0
0
0
0
0
0
0
0
0
0
0
0
0
0
0
0
0
0
0
0
0
0
0
0
0
0
0
0
0
0
0
0
0
0
0
0
0
0
0
0
0
0
0
0
0
0
0
0
0
0
0
0
0
0
0
0
0
0
0
0
0
0
0
0
0
0
0
0
0
0
0
0
0
0
0
0
0
0
0
0
0
0
0
0
0
0
0
0
0
0
0
0
0
0
0
0
0
0
0
0
0
0
0
0
0
0
0
0
0
0
0
0
0
0
0
0
0
0
0
0
0
0
0
0
0
0
0
0
0
0
0
0
0
0
0
0
0
0
0
0
0
0
0
0
0
0
0
0
0
0
0
0
0
0
0
0
0
0
0
0
0
0
0
0
0
0
0
0
0
0
0
0
0
0
0
0
0
0
0
0
0
0
0
0
0
0
0
0
0
0
0
0
0
0
0
0
0
0
0
0
0
0
0
0
0
0
0
0
0
0
0
0
0
0
0
0
0
0
0
0
0
0
0
0
0
0
0
0
0
0
0
0
0
0
0
0
0
0
0
0
0
0
0
0
0
0
0
0
0
0
0
0
0
0
0
0
0
0
0
0
0
0
0
0
0
0
0
0
0
0
0
0
0
0
0
0
0
0
0
0
0
0
0
0
0
0
0
0
0
0
0
0
0
0
0
0
0
0
0
0
0
0
0
0
0
0
0
0
0
0
0
0
0
0
0
0
0
0
0
0
0
0
0
0
0
0
0
0
0
0
0
0
0
0
0
0
0
0
0
0
0
0
0
0
0
0
0
0
0
0
0
0
0
0
0
0
0
0
0
0
0
0
0
0
0
0
0
0
0
0
0
0
0
0
0
0
0
0
0
0
0
0
0
0
0
0
0
0
0
0
0
0
0
0
0
0
0
0
0
0
0
0
0
0
0
0
0
0
0
0
0
0
0
0
0
0
0
0
0
0
0
0
0
0
0
0
0
0
0
0
0
0
0
0
0
0
0
0
0
0
0
0
0
0
0
SCALARS rhs double 1
LOOKUP_TABLE default
-4.37161
-4.58284
-4.62184
-4.64851
-4.67379
-4.6921
-4.71615
-4.74951
-4.79054
-4.83251
-4.85986
-4.86713
-4.89046
-4.94929
-5.01299
-5.01287
-4.88555
-4.75417
-4.66912
-4.62151
-4.5946
-4.57632
-4.56482
-4.55453
-4.54829
-4.55498
-4.5727
-4.5738
-4.50141
-4.43681
-4.40319
-4.40253
-4.41894
-4.44218
-4.42867
-4.38125
-4.46038
-4.39022
0.0144138
0
0
0
0
0
0
0
0
0
0
0
0.482551
0.312964
0.280831
0.279573
0.276795
0.27061
0.263985
0.248248
0.220292
0.1847
0.181035
0.214467
0.211949
0.154782
0.0776603
0.0859068
0.266164
0.377013
0.419914
0.433901
0.440078
0.449706
0.457445
0.466979
0.466652
0.454417
0.418641
0.434298
0.526644
0.573393
0.580176
0.564821
0.54125
0.519986
0.564454
0.809887
-1.4321
-0.528198
0.315877
0
0
0
0
0
0
0
0
0
0
0
0.419401
0.282381
0.261966
0.263107
0.264958
0.266897
0.278262
0.273479
0.236896
0.190372
0.214933
0.293827
0.307766
0.231841
0.125381
0.109738
0.366884
0.42258
0.393973
0.40104
0.369476
0.412332
0.380781
0.434796
0.399439
0.411385
0.363578
0.534283
4.84873
5.03423
3.99074
2.58995
0.661577
-1.41738
-1.06772
0.0144138
0
0
0
0
0
0
0
0
0
0
0
0
0
0
0.382119
0.270151
0.248815
0.260932
0.276292
0.29485
0.316041
0.314452
0.265784
0.204164
0.247162
0.300344
0.317343
0.263369
0.198087
0.319574
2.03174
4.89302
25.7006
19.3168
15.0613
10.2794
7.22108
4.43317
4.84873
5.03423
2.58995
-1.055
0
0
0
0
0
0
0
0
0
0
0
0
0
0
0
0
0
0
0
0
0
0
0.295017
0.205207
0.166839
0.24534
0.21603
0.295405
0.272941
0.300213
0.247626
0.2803
-0.275151
-0.50113
2.34436
2.63493
41.8466
32.8547
19.5017
9.00999
0
0
0
0
0
0
0
0
0
0
0
0
0
0
0
0
0
0
0
0
0
0
0
0
0
0
0
0
0
0
0
0
0.187569
0.136801
0.0879452
-0.471434
-1.15145
-1.68684
-1.86614
-0.440547
1.78924
3.20037
4.68643
4.81997
12.4974
35.3186
0
0
0
0
0
0
0
0
0
0
0
0
0
0
0
0
0
0
0
0
0
0
0
0
0
0
0
0
0
0
0
0
0
0
0
0
1.47614
1.54411
2.09799
2.47435
3.77929
5.12603
6.33856
5.10183
2.09579
1.47098
2.53607
14.3387
26.3021
0
0
0
0
0
0
0
0
0
0
0
0
0
0
0
0
0
0
0
0
0
0
0
0
0
0
0
0
0
0
0
0
0
0
0
0
0
2.59543
2.54951
1.62039
1.22694
0.49828
0.777197
0.916648
3.70181
7.89906
8.9678
11.6117
27.2717
0
0
0
0
0
0
0
0
0
0
0
0
0
0
0
0
0
0
0
0
0
0
0
0
0
0
0
0
0
0
0
0
0
0
0
0
0
0
2.45787
2.59584
4.01582
4.53242
6.43299
7.47839
9.23983
7.89527
5.98596
8.49533
41.2731
0
0
0
0
0
0
0
0
0
0
0
0
0
0
0
0
0
0
0
0
0
0
0
0
0
0
0
0
0
0
0
0
0
0
0
0
0
0
0
9.36633
9.33066
8.04142
9.25902
7.69325
7.78758
9.09454
10.208
11.1703
21.7759
3.2041
0
0
0
0
0
0
0
0
0
0
0
0
0
0
0
0
0
0
0
0
0
0
0
0
0
0
0
0
0
0
0
0
0
0
0
0
0
0
0
7.92952
10.0992
10.1145
8.86149
11.2589
12.4355
10.8064
8.57914
8.60392
43.2779
0
0
0
0
0
0
0
0
0
0
0
0
0
0
0
0
0
0
0
0
0
0
0
0
0
0
0
0
0
0
0
0
0
0
0
0
0
0
0
0
13.2058
10.8439
11.0393
13.0106
10.7272
10.2862
9.48307
9.57063
8.67562
33.2233
0
0
0
0
0
0
0
0
0
0
0
0
0
0
0
0
0
0
0
0
0
0
0
0
0
0
0
0
0
0
0
0
0
0
0
0
0
0
0
0
8.71388
9.82855
9.83715
7.65861
8.9401
7.02241
6.34758
6.44313
5.90605
26.1906
0
0
0
0
0
0
0
0
0
0
0
0
0
0
0
0
0
0
0
0
0
0
0
0
0
0
0
0
0
0
0
0
0
0
0
0
0
0
0
0
7.061
5.55892
5.71513
6.83869
5.56628
5.6724
5.42452
5.43401
4.26976
17.1298
0
0
0
0
0
0
0
0
0
0
0
0
0
0
0
0
0
0
0
0
0
0
0
0
0
0
0
0
0
0
0
0
0
0
0
0
0
0
0
0
6.55202
6.55536
6.55982
5.31204
5.40986
6.30896
5.08555
5.09432
5.2091
10.3371
0
0
0
0
0
0
0
0
0
0
0
0
0
0
0
0
0
0
0
0
0
0
0
0
0
0
0
0
0
0
0
0
0
0
0
0
0
0
0
0
5.52783
5.53996
5.54196
5.54121
5.54439
4.52522
5.16545
5.22779
16.4546
0
0
0
0
0
0
0
0
0
0
0
0
0
0
0
0
0
0
0
0
0
0
0
0
0
0
0
0
0
0
0
0
0
0
0
0
0
0
0
0
0
3.60674
3.66202
3.98033
3.98143
3.98244
3.98396
3.23505
3.31189
11.5415
0
0
0
0
0
0
0
0
0
0
0
0
0
0
0
0
0
0
0
0
0
0
0
0
0
0
0
0
0
0
0
0
0
0
0
0
0
0
0
0
0
6.01719
6.36025
5.75447
5.75462
5.75506
5.75536
5.75588
5.76119
8.30564
0
0
0
0
0
0
0
0
0
0
0
0
0
0
0
0
0
0
0
0
0
0
0
0
0
0
0
0
0
0
0
0
0
0
0
0
0
0
0
0
0
3.29611
2.74112
2.74112
2.74112
2.74112
2.74112
2.74112
2.74112
2.74112
0
0
0
0
0
0
0
0
0
0
0
0
0
0
0
0
0
0
0
0
0
0
0
0
0
0
0
0
0
0
0
0
0
0
0
0
0
0
0
0
0
0
0
0
0
0
0
0
0
0
0
0
0
0
0
0
0
0
0
0
0
0
0
0
0
0
0
0
0
0
0
0
0
0
0
0
0
0
0
0
0
0
0
0
0
0
0
0
0
0
0
