# vtk DataFile Version 4.0
Nusif Fluid VTK output
ASCII
DATASET STRUCTURED_POINTS
DIMENSIONS 50 20 1
ORIGIN 0 0 0 
SPACING 0.2 0.2 1
POINT_DATA 1000 

VECTORS velocity double
0.0203219 -0.0231467  0
0.0716596 -0.0320121  0
0.138567 -0.0366469  0
0.207295 -0.0334438  0
0.270928 -0.0312202  0
0.331393 -0.0300052  0
0.390141 -0.0295785  0
0.44845 -0.0293661  0
0.50685 -0.0297218  0
0.565799 -0.0300159  0
0.625909 -0.0306577  0
0.687511 -0.0316582  0
0.751368 -0.0329329  0
0.81763 -0.0340433  0
0.884015 -0.0330388  0
0.947061 -0.0307209  0
1.00449 -0.0274048  0
1.05681 -0.0256368  0
1.10605 -0.0243094  0
1.15365 -0.0240175  0
1.2007 -0.0237388  0
1.24673 -0.023019  0
1.2921 -0.0230614  0
1.33611 -0.0216746  0
1.38005 -0.0229817  0
1.42301 -0.0206919  0
1.46651 -0.0235514  0
1.50886 -0.0194919  0
1.55214 -0.0245418  0
1.5944 -0.0183909  0
1.63862 -0.0265956  0
1.68278 -0.0182263  0
1.7297 -0.0294545  0
1.77703 -0.0185631  0
1.82563 -0.0307607  0
1.87355 -0.0178878  0
1.91884 -0.0281023  0
1.96218 -0.0159918  0
1.99973 -0.0222483  0
2.0366 -0.0154558  0
2.06866 -0.0173053  0
2.10445 -0.0192564  0
2.13905 -0.0161395  0
2.17867 -0.0241878  0
2.21819 -0.0160978  0
2.25974 -0.0262166  0
2.30232 -0.0171134  0
2.34747 -0.0287896  0
2.4055 -0.0299937  0
2.43512 -0.0129117  0
0.0331516 -0.0802097  0
0.0969875 -0.0947547  0
0.155642 -0.101426  0
0.212843 -0.0963037  0
0.271347 -0.0918759  0
0.329415 -0.0892527  0
0.387001 -0.0881173  0
0.444311 -0.0878571  0
0.501763 -0.0885027  0
0.559752 -0.0895725  0
0.618476 -0.0913697  0
0.678829 -0.0943217  0
0.741972 -0.0987081  0
0.809475 -0.103465  0
0.875548 -0.0975592  0
0.935655 -0.0907806  0
0.990495 -0.0810967  0
1.04118 -0.0763643  0
1.09014 -0.0732734  0
1.13835 -0.0722586  0
1.1862 -0.0719015  0
1.23343 -0.0695095  0
1.28016 -0.0701792  0
1.32587 -0.0656811  0
1.37131 -0.0698381  0
1.41573 -0.06266  0
1.4604 -0.0711973  0
1.50396 -0.059243  0
1.54808 -0.0735771  0
1.5913 -0.0563784  0
1.63556 -0.0784216  0
1.67985 -0.0564121  0
1.72556 -0.0852333  0
1.77187 -0.057978  0
1.81892 -0.0883644  0
1.86538 -0.0561685  0
1.91052 -0.0816828  0
1.95329 -0.0499614  0
1.99225 -0.0663245  0
2.0298 -0.0472145  0
2.06279 -0.0521619  0
2.09879 -0.0575868  0
2.13385 -0.0489909  0
2.17263 -0.0711985  0
2.21195 -0.0493937  0
2.25246 -0.0764644  0
2.29331 -0.0517614  0
2.33354 -0.0810052  0
2.38421 -0.087947  0
2.41181 -0.0496918  0
0.0324009 -0.146912  0
0.0945132 -0.155289  0
0.152429 -0.157944  0
0.209139 -0.154463  0
0.266319 -0.150286  0
0.323529 -0.147422  0
0.380555 -0.145827  0
0.437282 -0.145594  0
0.493754 -0.146177  0
0.550267 -0.147751  0
0.607042 -0.150289  0
0.664685 -0.154841  0
0.725015 -0.163118  0
0.793617 -0.17661  0
0.850006 -0.14801  0
0.906148 -0.157292  0
0.962584 -0.126647  0
1.01354 -0.133149  0
1.06861 -0.121307  0
1.11581 -0.120294  0
1.17237 -0.129073  0
1.21387 -0.101741  0
1.27287 -0.144471  0
1.30865 -0.0735562  0
1.37225 -0.17177  0
1.40082 -0.0344501  0
1.47068 -0.21464  0
1.49099 0.0195418  0
1.56812 -0.27425  0
1.58082 0.0875032  0
1.66142 -0.347722  0
1.67112 0.157995  0
1.74313 -0.417932  0
1.76194 0.208729  0
1.80869 -0.449518  0
1.8546 0.211841  0
1.86596 -0.406925  0
1.9518 0.145994  0
1.93123 -0.281518  0
2.051 0.0100781  0
2.01286 -0.105173  0
2.13815 -0.166485  0
2.10406 0.0582067  0
2.19946 -0.313325  0
2.19613 0.156038  0
2.24311 -0.370101  0
2.29075 0.152671  0
2.25636 -0.292012  0
2.37323 -0.0451931  0
2.30251 -0.0735603  0
0.0291281 -0.208826  0
0.0857826 -0.21262  0
0.140893 -0.213914  0
0.197582 -0.212312  0
0.255562 -0.208133  0
0.313895 -0.205809  0
0.37205 -0.203269  0
0.429507 -0.202969  0
0.486183 -0.202704  0
0.542179 -0.204471  0
0.597196 -0.206088  0
0.650715 -0.21094  0
0.696093 -0.213478  0
0.714885 -0.214376  0
0.805673 -0.190678  0
0.895614 -0.0972327  0
0.947773 -0.072955  0
1.01293 -0.0824215  0
1.05825 -0.0723432  0
1.12437 -0.0720528  0
1.15556 -0.0809103  0
1.23032 -0.0552507  0
1.24717 -0.0973533  0
1.33621 -0.0295498  0
1.33518 -0.124914  0
1.4429 0.00751803  0
1.41891 -0.166994  0
1.54921 0.0592929  0
1.50192 -0.225215  0
1.6515 0.125491  0
1.59073 -0.295896  0
1.73738 0.196181  0
1.69116 -0.362153  0
1.7917 0.248144  0
1.80672 -0.391914  0
1.81603 0.250121  0
1.93612 -0.353345  0
1.83589 0.179963  0
2.06935 -0.237442  0
1.88387 0.0418368  0
2.18285 -0.0703165  0
1.97677 -0.128155  0
2.24222 0.091058  0
2.10118 -0.266314  0
2.24967 0.189334  0
2.24512 -0.319854  0
2.21069 0.187319  0
2.43092 -0.239796  0
2.17021 0.0127602  0
2.3627 -0.0367802  0
0.030224 -0.118977  0
0.0875545 -0.120073  0
0.141529 -0.120749  0
0.195336 -0.120709  0
0.252487 -0.118503  0
0.311374 -0.117635  0
0.370281 -0.115982  0
0.428834 -0.115866  0
0.486594 -0.115309  0
0.543381 -0.116277  0
0.599681 -0.116511  0
0.650339 -0.118763  0
0.684518 -0.116135  0
0.705938 -0.107188  0
0.357443 -0.107188  0
0 0  0
0 0  0
0 0  0
0 0  0
0 0  0
0 0  0
0 0  0
0 0  0
0 0  0
0 0  0
0 0  0
0 0  0
0 0  0
0 0  0
0 0  0
0 0  0
0 0  0
0 0  0
0 0  0
0 0  0
0 0  0
0 0  0
0 0  0
0 0  0
0 0  0
0 0  0
0 0  0
0 0  0
0 0  0
0 0  0
0 0  0
0 0  0
0 0  0
0 0  0
0 0  0
0 0  0
0 0  0
0 0  0
0 0  0
0 0  0
0 0  0
0 0  0
0 0  0
0 0  0
0 0  0
0 0  0
0 0  0
0 0  0
0 0  0
0 0  0
0 0  0
0 0  0
0 0  0
0 0  0
0 0  0
0 0  0
0 0  0
0 0  0
0 0  0
0 0  0
0 0  0
0 0  0
0 0  0
0 0  0
0 0  0
0 0  0
0 0  0
0 0  0
0 0  0
0 0  0
0 0  0
0 0  0
0 0  0
0 0  0
0 0  0
0 0  0
0 0  0
0 0  0
0 0  0
0 0  0
0 0  0
0 0  0
0 0  0
0 0  0
0 0  0
0 0  0
0 0  0
0 0  0
0 0  0
0 0  0
0 0  0
0 0  0
0 0  0
0 0  0
0 0  0
0 0  0
0 0  0
0 0  0
0 0  0
0 0  0
0 0  0
0 0  0
0 0  0
0 0  0
0 0  0
0 0  0
0 0  0
0 0  0
0 0  0
0 0  0
0 0  0
0 0  0
0 0  0
0 0  0
0 0  0
0 0  0
0 0  0
0 0  0
0 0  0
0 0  0
0 0  0
0 0  0
0 0  0
0 0  0
0 0  0
0 0  0
0 0  0
0 0  0
0 0  0
0 0  0
0 0  0
0 0  0
0 0  0
0 0  0
0 0  0
0 0  0
0 0  0
0 0  0
0 0  0
0 0  0
0 0  0
0 0  0
0 0  0
0 0  0
0 0  0
0 0  0
0 0  0
0 0  0
0 0  0
0 0  0
0 0  0
0 0  0
0 0  0
0 0  0
0 0  0
0 0  0
0 0  0
0 0  0
0 0  0
0 0  0
0 0  0
0 0  0
0 0  0
0 0  0
0 0  0
0 0  0
0 0  0
0 0  0
0 0  0
0 0  0
0 0  0
0 0  0
0 0  0
0 0  0
0 0  0
0 0  0
0 0  0
0 0  0
0 0  0
0 0  0
0 0  0
0 0  0
0 0  0
0 0  0
0 0  0
0 0  0
0 0  0
0 0  0
0 0  0
0 0  0
0 0  0
0 0  0
0 0  0
0 0  0
0 0  0
0 0  0
0 0  0
0 0  0
0 0  0
0 0  0
0 0  0
0 0  0
0 0  0
0 0  0
0 0  0
0 0  0
0 0  0
0 0  0
0 0  0
0 0  0
0 0  0
0 0  0
0 0  0
0 0  0
0 0  0
0 0  0
0 0  0
0 0  0
0 0  0
0 0  0
0 0  0
0 0  0
0 0  0
0 0  0
0 0  0
0 0  0
0 0  0
0 0  0
0 0  0
0 0  0
0 0  0
0 0  0
0 0  0
0 0  0
0 0  0
0 0  0
0 0  0
0 0  0
0 0  0
0 0  0
0 0  0
0 0  0
0 0  0
0 0  0
0 0  0
0 0  0
0 0  0
0 0  0
0 0  0
0 0  0
0 0  0
0 0  0
0 0  0
0 0  0
0 0  0
0 0  0
0 0  0
0 0  0
0 0  0
0 0  0
0 0  0
0 0  0
0 0  0
0 0  0
0 0  0
0 0  0
0 0  0
0 0  0
0 0  0
0 0  0
0 0  0
0 0  0
0 0  0
0 0  0
0 0  0
0 0  0
0 0  0
0 0  0
0 0  0
0 0  0
0 0  0
0 0  0
0 0  0
0 0  0
0 0  0
0 0  0
0 0  0
0 0  0
0 0  0
0 0  0
0 0  0
0 0  0
0 0  0
0 0  0
0 0  0
0 0  0
0 0  0
0 0  0
0 0  0
0 0  0
0 0  0
0 0  0
0 0  0
0 0  0
0 0  0
0 0  0
0 0  0
0 0  0
0 0  0
0 0  0
0 0  0
0 0  0
0 0  0
0 0  0
0 0  0
0 0  0
0 0  0
0 0  0
0 0  0
0 0  0
0 0  0
0 0  0
0 0  0
0 0  0
0 0  0
0 0  0
0 0  0
0 0  0
0 0  0
0 0  0
0 0  0
0 0  0
0 0  0
0 0  0
0 0  0
0 0  0
0 0  0
0 0  0
0 0  0
0 0  0
0 0  0
0 0  0
0 0  0
0 0  0
0 0  0
0 0  0
0 0  0
0 0  0
0 0  0
0 0  0
0 0  0
0 0  0
0 0  0
0 0  0
0 0  0
0 0  0
0 0  0
0 0  0
0 0  0
0 0  0
0 0  0
0 0  0
0 0  0
0 0  0
0 0  0
0 0  0
0 0  0
0 0  0
0 0  0
0 0  0
0 0  0
0 0  0
0 0  0
0 0  0
0 0  0
0 0  0
0 0  0
0 0  0
0 0  0
0 0  0
0 0  0
0 0  0
0 0  0
0 0  0
0 0  0
0 0  0
0 0  0
0 0  0
0 0  0
0 0  0
0 0  0
0 0  0
0 0  0
0 0  0
0 0  0
0 0  0
0 0  0
0 0  0
0 0  0
0 0  0
0 0  0
0 0  0
0 0  0
0 0  0
0 0  0
0 0  0
0 0  0
0 0  0
0 0  0
0 0  0
0 0  0
0 0  0
0 0  0
0 0  0
0 0  0
0 0  0
0 0  0
0 0  0
0 0  0
0 0  0
0 0  0
0 0  0
0 0  0
0 0  0
0 0  0
0 0  0
0 0  0
0 0  0
0 0  0
0 0  0
0 0  0
0 0  0
0 0  0
0 0  0
0 0  0
0 0  0
0 0  0
0 0  0
0 0  0
0 0  0
0 0  0
0 0  0
0 0  0
0 0  0
0 0  0
0 0  0
0 0  0
0 0  0
0 0  0
0 0  0
0 0  0
0 0  0
0 0  0
0 0  0
0 0  0
0 0  0
0 0  0
0 0  0
0 0  0
0 0  0
0 0  0
0 0  0
0 0  0
0 0  0
0 0  0
0 0  0
0 0  0
0 0  0
0 0  0
0 0  0
0 0  0
0 0  0
0 0  0
0 0  0
0 0  0
0 0  0
0 0  0
0 0  0
0 0  0
0 0  0
0 0  0
0 0  0
0 0  0
0 0  0
0 0  0
0 0  0
0 0  0
0 0  0
0 0  0
0 0  0
0 0  0
0 0  0
0 0  0
0 0  0
0 0  0
0 0  0
0 0  0
0 0  0
0 0  0
0 0  0
0 0  0
0 0  0
0 0  0
0 0  0
0 0  0
0 0  0
0 0  0
0 0  0
0 0  0
0 0  0
0 0  0
0 0  0
0 0  0
0 0  0
0 0  0
0 0  0
0 0  0
0 0  0
0 0  0
0 0  0
0 0  0
0 0  0
0 0  0
0 0  0
0 0  0
0 0  0
0 0  0
0 0  0
0 0  0
0 0  0
0 0  0
0 0  0
0 0  0
0 0  0
0 0  0
0 0  0
0 0  0
0 0  0
0 0  0
0 0  0
0 0  0
0 0  0
0 0  0
0 0  0
0 0  0
0 0  0
0 0  0
0 0  0
0 0  0
0 0  0
0 0  0
0 0  0
0 0  0
0 0  0
0 0  0
0 0  0
0 0  0
0 0  0
0 0  0
0 0  0
0 0  0
0 0  0
0 0  0
0 0  0
0 0  0
0 0  0
0 0  0
0 0  0
0 0  0
0 0  0
0 0  0
0 0  0
0 0  0
0 0  0
0 0  0
0 0  0
0 0  0
0 0  0
0 0  0
0 0  0
0 0  0
0 0  0
0 0  0
0 0  0
0 0  0
0 0  0
0 0  0
0 0  0
0 0  0
0 0  0
0 0  0
0 0  0
0 0  0
0 0  0
0 0  0
0 0  0
0 0  0
0 0  0
0 0  0
0 0  0
0 0  0
0 0  0
0 0  0
0 0  0
0 0  0
0 0  0
0 0  0
0 0  0
0 0  0
0 0  0
0 0  0
0 0  0
0 0  0
0 0  0
0 0  0
0 0  0
0 0  0
0 0  0
0 0  0
0 0  0
0 0  0
0 0  0
0 0  0
0 0  0
0 0  0
0 0  0
0 0  0
0 0  0
0 0  0
0 0  0
0 0  0
0 0  0
0 0  0
0 0  0
0 0  0
0 0  0
0 0  0
0 0  0
0 0  0
0 0  0
0 0  0
0 0  0
0 0  0
0 0  0
0 0  0
0 0  0
0 0  0
0 0  0
0 0  0
0 0  0
0 0  0
0 0  0
0 0  0
0 0  0
0 0  0
0 0  0
0 0  0
0 0  0
0 0  0
0 0  0
0 0  0
0 0  0
0 0  0
0 0  0
0 0  0
0 0  0
0 0  0
0 0  0
0 0  0
0 0  0
0 0  0
0 0  0
0 0  0
0 0  0
0 0  0
0 0  0
0 0  0
0 0  0
0 0  0
0 0  0
0 0  0
0 0  0
0 0  0
0 0  0
0 0  0
0 0  0
0 0  0
0 0  0
0 0  0
0 0  0
0 0  0
0 0  0
0 0  0
0 0  0
0 0  0
0 0  0
0 0  0
0 0  0
0 0  0
0 0  0
0 0  0
0 0  0
0 0  0
0 0  0
0 0  0
0 0  0
0 0  0
0 0  0
0 0  0
0 0  0
0 0  0
0 0  0
0 0  0
0 0  0
0 0  0
0 0  0
0 0  0
0 0  0
0 0  0
0 0  0
0 0  0
0 0  0
0 0  0
0 0  0
0 0  0
0 0  0
0 0  0
0 0  0
0 0  0
0 0  0
0 0  0
0 0  0
0 0  0
0 0  0
0 0  0
0 0  0
0 0  0
0 0  0
0 0  0
0 0  0
0 0  0
0 0  0
0 0  0
0 0  0
0 0  0
0 0  0
0 0  0
0 0  0
0 0  0
0 0  0
0 0  0
0 0  0
0 0  0
0 0  0
0 0  0
0 0  0
0 0  0
0 0  0
0 0  0
0 0  0
0 0  0
0 0  0
0 0  0
0 0  0
0 0  0
0 0  0
0 0  0
0 0  0
0 0  0
0 0  0
0 0  0
0 0  0
0 0  0
0 0  0
0 0  0
0 0  0
0 0  0
0 0  0
0 0  0
0 0  0
0 0  0
0 0  0
0 0  0
0 0  0
0 0  0

SCALARS pressure double 1
LOOKUP_TABLE default
1.23345
1.36422
1.05969
0.86759
0.749544
0.674006
0.624766
0.592505
0.567872
0.549521
0.530838
0.509194
0.481741
0.446002
0.406228
0.381104
0.363659
0.354908
0.349165
0.346923
0.346822
0.345535
0.349387
0.347435
0.356811
0.3537
0.370898
0.365772
0.393076
0.384542
0.422205
0.406659
0.448975
0.420637
0.456033
0.413543
0.433149
0.388575
0.394303
0.370298
0.370226
0.380972
0.374386
0.40659
0.386954
0.417773
0.389046
0.408026
0.382088
0.377349
0.8133
0.833022
0.701075
0.586379
0.503384
0.445963
0.408346
0.381325
0.363348
0.34731
0.332281
0.31427
0.287707
0.246864
0.18752
0.17211
0.154712
0.153633
0.146777
0.147414
0.14927
0.143555
0.156744
0.139642
0.171163
0.136712
0.195686
0.135981
0.2323
0.139844
0.279614
0.148812
0.324157
0.156052
0.338353
0.151473
0.301751
0.140513
0.228545
0.151415
0.162549
0.203914
0.138516
0.262578
0.139295
0.281408
0.143198
0.254881
0.185552
0.113637
0.37454
0.368776
0.32099
0.2701
0.228488
0.198757
0.178635
0.164226
0.154106
0.145772
0.13712
0.126656
0.107414
0.0636356
-0.0776127
-0.0356343
-0.0676134
-0.0422893
-0.0581698
-0.0555548
-0.0333228
-0.0823605
0.00370605
-0.126423
0.0599481
-0.191776
0.140086
-0.284307
0.247257
-0.40119
0.373544
-0.520865
0.485402
-0.597028
0.523259
-0.574341
0.43381
-0.421909
0.214197
-0.160935
-0.0726044
0.129772
-0.325558
0.33944
-0.455298
0.38994
-0.422014
0.260384
0
-0.217368
-0.0587995
-0.0559174
-0.0577228
-0.0571369
-0.0594488
-0.0583007
-0.0587565
-0.0569124
-0.0569091
-0.0553494
-0.0561161
-0.0521992
-0.0484339
-0.0239356
0
0
0
0
0
0
0
0
0
0
0
0
0
0
0
0
0
0
0
0
0
0
0
0
0
0
0
0
0
0
0
0
0
0
0
0
0
0
0
0
0
0
0
0
0
0
0
0
0
0
0
0
0
0
0
0
0
0
0
0
0
0
0
0
0
0
0
0
0
0
0
0
0
0
0
0
0
0
0
0
0
0
0
0
0
0
0
0
0
0
0
0
0
0
0
0
0
0
0
0
0
0
0
0
0
0
0
0
0
0
0
0
0
0
0
0
0
0
0
0
0
0
0
0
0
0
0
0
0
0
0
0
0
0
0
0
0
0
0
0
0
0
0
0
0
0
0
0
0
0
0
0
0
0
0
0
0
0
0
0
0
0
0
0
0
0
0
0
0
0
0
0
0
0
0
0
0
0
0
0
0
0
0
0
0
0
0
0
0
0
0
0
0
0
0
0
0
0
0
0
0
0
0
0
0
0
0
0
0
0
0
0
0
0
0
0
0
0
0
0
0
0
0
0
0
0
0
0
0
0
0
0
0
0
0
0
0
0
0
0
0
0
0
0
0
0
0
0
0
0
0
0
0
0
0
0
0
0
0
0
0
0
0
0
0
0
0
0
0
0
0
0
0
0
0
0
0
0
0
0
0
0
0
0
0
0
0
0
0
0
0
0
0
0
0
0
0
0
0
0
0
0
0
0
0
0
0
0
0
0
0
0
0
0
0
0
0
0
0
0
0
0
0
0
0
0
0
0
0
0
0
0
0
0
0
0
0
0
0
0
0
0
0
0
0
0
0
0
0
0
0
0
0
0
0
0
0
0
0
0
0
0
0
0
0
0
0
0
0
0
0
0
0
0
0
0
0
0
0
0
0
0
0
0
0
0
0
0
0
0
0
0
0
0
0
0
0
0
0
0
0
0
0
0
0
0
0
0
0
0
0
0
0
0
0
0
0
0
0
0
0
0
0
0
0
0
0
0
0
0
0
0
0
0
0
0
0
0
0
0
0
0
0
0
0
0
0
0
0
0
0
0
0
0
0
0
0
0
0
0
0
0
0
0
0
0
0
0
0
0
0
0
0
0
0
0
0
0
0
0
0
0
0
0
0
0
0
0
0
0
0
0
0
0
0
0
0
0
0
0
0
0
0
0
0
0
0
0
0
0
0
0
0
0
0
0
0
0
0
0
0
0
0
0
0
0
0
0
0
0
0
0
0
0
0
0
0
0
0
0
0
0
0
0
0
0
0
0
0
0
0
0
0
0
0
0
0
0
0
0
0
0
0
0
0
0
0
0
0
0
0
0
0
0
0
0
0
0
0
0
0
0
0
0
0
0
0
0
0
0
0
0
0
0
0
0
0
0
0
0
0
0
0
0
0
0
0
0
0
0
0
0
0
0
0
0
0
0
0
0
0
0
0
0
0
0
0
0
0
0
0
0
0
0
0
0
0
0
0
0
0
0
0
0
0
0
0
0
0
0
0
0
0
0
0
0
0
0
0
0
0
0
0
0
0
0
0
0
0
0
0
0
0
0
0
0
0
0
0
0
0
0
0
0
0
0
0
0
0
0
0
0
0
0
0
0
0
0
0
0
0
0
0
0
0
0
0
0
0
0
0
0
0
0
0
0
0
0
0
0
0
0
0
0
0
0
0
0
0
0
0
0
0
0
0
0
0
0
0
0
0
0
0
0
0
0
0
0
0
0
0
0
0
0
0
0
0
0
0
0
0
0
0
0
0
0
0
0
0
0
0
0
0
0
0
0
0
0
0
0
0
0
0
0
0
0
0
0
0
0
0
0
0
0
0
0
0
0
0
0
0
0
0
0
0
0
0
0
0
0
0
0
0
0
0
0
0
0
0
0
0
0
0
0
0
0
0
0
0
0
0
0
0
0
0
0
SCALARS rhs double 1
LOOKUP_TABLE default
-7.84975
-24.3203
-6.25252
-5.23984
-5.10585
-5.03704
-5.01943
-5.03217
-5.00252
-5.03198
-5.02842
-5.02406
-5.05366
-5.07995
-5.09308
-5.03749
-4.99385
-4.96756
-4.95457
-4.9527
-4.94329
-4.94729
-4.92882
-4.94418
-4.91804
-4.94915
-4.90876
-4.95497
-4.90151
-4.96233
-4.90435
-4.97416
-4.91927
-4.97906
-4.9305
-4.95889
-4.92157
-4.91798
-4.90475
-4.88308
-4.90486
-4.88755
-4.91469
-4.90295
-4.9337
-4.90167
-4.95622
-4.95438
-4.38664
-6.47753
-0.0722698
-2.0384
-0.0548381
-0.0392792
-0.0286934
-0.0045315
-0.0189847
0.0182261
-0.0106867
0.0128251
0.00376
-0.0189648
-0.0195027
-0.0562934
-0.0855193
0.00875304
0.0320149
0.0406843
0.0568258
0.025637
0.0853398
-0.0104007
0.100254
-0.0966221
0.0577269
-0.297606
-0.124202
-0.731509
-0.430564
-1.53332
-0.880686
-2.65701
-1.37994
-3.54219
-1.55311
-3.28797
-1.08044
-1.73637
-0.264276
-0.173055
0.0795016
-0.0828789
-0.980384
-0.657266
-2.03641
-0.883988
-1.73641
-0.558289
0.211072
0.1167
-0.0137779
0.00615204
0.00229861
-0.0104757
-0.0128301
-0.0126131
-0.0229849
0.00365607
-0.00345986
0.00368791
0.00162951
-0.0011682
-0.00726063
-0.0408577
-0.384594
-0.0716185
0.657531
2.35621
1.45074
4.03295
4.32881
6.7945
6.192
6.09446
6.80445
10.1159
10.1375
9.98022
18.1445
18.33
17.2865
15.8858
13.9574
11.8784
12.2281
13.3102
13.2958
11.3117
7.358
7.32827
7.11736
5.42046
4.12732
5.05521
3.81774
1.86915
2.52833
3.09033
0.9036
0.0910699
1.15391
1.17609
1.25067
1.31148
1.44279
1.53516
2.64704
2.64678
3.56174
5.09451
4.7394
3.53961
6.67078
6.32972
11.3432
13.0347
14.0969
15.7691
35.7955
28.0565
20.5298
16.247
13.5584
10.8402
10.7865
8.4957
6.05141
2.40646
0
0
0
0
0
0
0
0
0
0
0
0
0
0
0
0
0
0
0
0
0
0
5.36272
5.33529
5.71969
5.67828
4.75936
4.29628
3.76069
4.49375
4.93377
7.83712
7.96544
8.66736
9.26158
8.97228
43.8307
32.8547
19.5017
9.00999
0
0
0
0
0
0
0
0
0
0
0
0
0
0
0
0
0
0
0
0
0
0
0
0
0
0
0
0
0
0
0
0
6.36602
6.31525
5.9657
5.40632
4.81609
4.65051
4.54086
5.49725
6.68708
4.04255
4.68643
4.81997
12.4974
35.3186
0
0
0
0
0
0
0
0
0
0
0
0
0
0
0
0
0
0
0
0
0
0
0
0
0
0
0
0
0
0
0
0
0
0
0
0
1.47614
1.54411
2.09799
2.47435
3.77929
5.12603
6.33856
5.10183
2.09579
1.47098
2.53607
14.3387
26.3021
0
0
0
0
0
0
0
0
0
0
0
0
0
0
0
0
0
0
0
0
0
0
0
0
0
0
0
0
0
0
0
0
0
0
0
0
0
2.59543
2.54951
1.62039
1.22694
0.49828
0.777197
0.916648
3.70181
7.89906
8.9678
11.6117
27.2717
0
0
0
0
0
0
0
0
0
0
0
0
0
0
0
0
0
0
0
0
0
0
0
0
0
0
0
0
0
0
0
0
0
0
0
0
0
0
2.45787
2.59584
4.01582
4.53242
6.43299
7.47839
9.23983
7.89527
5.98596
8.49533
41.2731
0
0
0
0
0
0
0
0
0
0
0
0
0
0
0
0
0
0
0
0
0
0
0
0
0
0
0
0
0
0
0
0
0
0
0
0
0
0
0
9.36633
9.33066
8.04142
9.25902
7.69325
7.78758
9.09454
10.208
11.1703
21.7759
3.2041
0
0
0
0
0
0
0
0
0
0
0
0
0
0
0
0
0
0
0
0
0
0
0
0
0
0
0
0
0
0
0
0
0
0
0
0
0
0
0
7.92952
10.0992
10.1145
8.86149
11.2589
12.4355
10.8064
8.57914
8.60392
43.2779
0
0
0
0
0
0
0
0
0
0
0
0
0
0
0
0
0
0
0
0
0
0
0
0
0
0
0
0
0
0
0
0
0
0
0
0
0
0
0
0
13.2058
10.8439
11.0393
13.0106
10.7272
10.2862
9.48307
9.57063
8.67562
33.2233
0
0
0
0
0
0
0
0
0
0
0
0
0
0
0
0
0
0
0
0
0
0
0
0
0
0
0
0
0
0
0
0
0
0
0
0
0
0
0
0
8.71388
9.82855
9.83715
7.65861
8.9401
7.02241
6.34758
6.44313
5.90605
26.1906
0
0
0
0
0
0
0
0
0
0
0
0
0
0
0
0
0
0
0
0
0
0
0
0
0
0
0
0
0
0
0
0
0
0
0
0
0
0
0
0
7.061
5.55892
5.71513
6.83869
5.56628
5.6724
5.42452
5.43401
4.26976
17.1298
0
0
0
0
0
0
0
0
0
0
0
0
0
0
0
0
0
0
0
0
0
0
0
0
0
0
0
0
0
0
0
0
0
0
0
0
0
0
0
0
6.55202
6.55536
6.55982
5.31204
5.40986
6.30896
5.08555
5.09432
5.2091
10.3371
0
0
0
0
0
0
0
0
0
0
0
0
0
0
0
0
0
0
0
0
0
0
0
0
0
0
0
0
0
0
0
0
0
0
0
0
0
0
0
0
5.52783
5.53996
5.54196
5.54121
5.54439
4.52522
5.16545
5.22779
16.4546
0
0
0
0
0
0
0
0
0
0
0
0
0
0
0
0
0
0
0
0
0
0
0
0
0
0
0
0
0
0
0
0
0
0
0
0
0
0
0
0
0
3.60674
3.66202
3.98033
3.98143
3.98244
3.98396
3.23505
3.31189
11.5415
0
0
0
0
0
0
0
0
0
0
0
0
0
0
0
0
0
0
0
0
0
0
0
0
0
0
0
0
0
0
0
0
0
0
0
0
0
0
0
0
0
6.01719
6.36025
5.75447
5.75462
5.75506
5.75536
5.75588
5.76119
8.30564
0
0
0
0
0
0
0
0
0
0
0
0
0
0
0
0
0
0
0
0
0
0
0
0
0
0
0
0
0
0
0
0
0
0
0
0
0
0
0
0
0
3.29611
2.74112
2.74112
2.74112
2.74112
2.74112
2.74112
2.74112
2.74112
0
0
0
0
0
0
0
0
0
0
0
0
0
0
0
0
0
0
0
0
0
0
0
0
0
0
0
0
0
0
0
0
0
0
0
0
0
0
0
0
0
0
0
0
0
0
0
0
0
0
0
0
0
0
0
0
0
0
0
0
0
0
0
0
0
0
0
0
0
0
0
0
0
0
0
0
0
0
0
0
0
0
0
0
0
0
0
0
0
0
0
