# vtk DataFile Version 4.0
Nusif Fluid VTK output
ASCII
DATASET STRUCTURED_POINTS
DIMENSIONS 50 20 1
ORIGIN 0 0 0 
SPACING 0.2 0.2 1
POINT_DATA 1000 

VECTORS velocity double
0.042587 -0.0467885  0
0.128695 -0.0470653  0
0.216633 -0.0476793  0
0.306507 -0.0487756  0
0.398746 -0.0502729  0
0.494364 -0.0520773  0
0.594315 -0.0545621  0
0.699818 -0.0575477  0
0.812096 -0.0612347  0
0.93188 -0.0650873  0
1.05948 -0.0688682  0
1.19412 -0.0720915  0
1.33336 -0.0733784  0
1.47214 -0.0715143  0
1.60391 -0.0662974  0
1.72419 -0.0599842  0
1.83204 -0.0538359  0
1.92767 -0.0476724  0
2.01141 -0.0419033  0
2.08366 -0.0361753  0
2.14507 -0.0310538  0
2.1976 -0.0272605  0
2.2443 -0.0251267  0
2.28876 -0.0250189  0
2.3333 -0.0253585  0
2.37491 -0.0219152  0
2.40419 -0.0130499  0
2.41965 -0.00826077  0
2.43205 -0.00983044  0
2.44737 -0.0111878  0
2.45326 -0.0004449  0
2.43695 0.0110272  0
2.43386 -0.0107965  0
1.22233 0.00177593  0
0 0  0
0 0  0
0 0  0
0 0  0
0 0  0
0 0  0
0 0  0
0 0  0
0 0  0
0 0  0
0 0  0
0 0  0
0 0  0
0 0  0
0 0  0
0 0  0
0.042427 -0.139279  0
0.128093 -0.140368  0
0.215321 -0.142394  0
0.304388 -0.14554  0
0.395888 -0.14982  0
0.490331 -0.155133  0
0.588679 -0.162273  0
0.692101 -0.171204  0
0.801854 -0.181845  0
0.918505 -0.193088  0
1.04168 -0.203781  0
1.17144 -0.213595  0
1.30643 -0.218013  0
1.44146 -0.212489  0
1.56822 -0.195564  0
1.68205 -0.176518  0
1.78413 -0.158852  0
1.87408 -0.139803  0
1.9527 -0.123654  0
2.02158 -0.107064  0
2.0806 -0.0921669  0
2.1316 -0.0810437  0
2.17711 -0.0749802  0
2.22095 -0.0749271  0
2.26712 -0.0776293  0
2.31385 -0.0695013  0
2.34771 -0.0399506  0
2.36495 -0.0255206  0
2.37851 -0.0299851  0
2.39776 -0.0370438  0
2.41821 -0.0123847  0
2.42318 0.0257224  0
2.41951 -0.021593  0
1.20976 -0.00902059  0
0 0  0
0 0  0
0 0  0
0 0  0
0 0  0
0 0  0
0 0  0
0 0  0
0 0  0
0 0  0
0 0  0
0 0  0
0 0  0
0 0  0
0 0  0
0 0  0
0.0418873 -0.230211  0
0.126607 -0.232196  0
0.212936 -0.235848  0
0.300846 -0.240961  0
0.390894 -0.247493  0
0.483228 -0.255782  0
0.578463 -0.266765  0
0.677951 -0.281153  0
0.782881 -0.298074  0
0.893328 -0.315279  0
1.0071 -0.32999  0
1.12508 -0.3465  0
1.24984 -0.356175  0
1.37695 -0.347843  0
1.49373 -0.315091  0
1.59619 -0.284624  0
1.69111 -0.259052  0
1.77284 -0.222632  0
1.84312 -0.201101  0
1.90967 -0.176444  0
1.96936 -0.152919  0
2.0221 -0.135281  0
2.0695 -0.12518  0
2.11408 -0.124657  0
2.16058 -0.131832  0
2.21068 -0.123717  0
2.25264 -0.0701256  0
2.28095 -0.0465026  0
2.30209 -0.0494696  0
2.31661 -0.0570665  0
2.32196 -0.0238795  0
2.39623 0.00275545  0
2.445 -0.0107965  0
1.20976 -0.0107965  0
0 0  0
0 0  0
0 0  0
0 0  0
0 0  0
0 0  0
0 0  0
0 0  0
0 0  0
0 0  0
0 0  0
0 0  0
0 0  0
0 0  0
0 0  0
0 0  0
0.0413111 -0.319989  0
0.124829 -0.322838  0
0.210038 -0.32815  0
0.296915 -0.335071  0
0.385367 -0.343371  0
0.475 -0.35332  0
0.565755 -0.366679  0
0.659173 -0.385531  0
0.757493 -0.408398  0
0.860089 -0.42937  0
0.959229 -0.440113  0
1.05671 -0.463159  0
1.16292 -0.481795  0
1.27649 -0.474245  0
1.37897 -0.419284  0
1.46768 -0.382921  0
1.55578 -0.355101  0
1.64027 -0.301292  0
1.71421 -0.272361  0
1.78649 -0.249724  0
1.85603 -0.214541  0
1.91759 -0.193633  0
1.9749 -0.177317  0
2.02064 -0.168584  0
2.06211 -0.1815  0
2.08449 -0.152263  0
2.16274 -0.119356  0
2.26704 -0.0292428  0
2.30406 -0.0293149  0
2.29923 -0.0312105  0
2.30269 -0.0119398  0
1.16098 -0.0119398  0
0 0  0
0 0  0
0 0  0
0 0  0
0 0  0
0 0  0
0 0  0
0 0  0
0 0  0
0 0  0
0 0  0
0 0  0
0 0  0
0 0  0
0 0  0
0 0  0
0 0  0
0 0  0
0.0407217 -0.408311  0
0.123009 -0.412331  0
0.207059 -0.419383  0
0.292882 -0.427903  0
0.380161 -0.437643  0
0.467008 -0.446895  0
0.551153 -0.459327  0
0.635585 -0.48208  0
0.725677 -0.511587  0
0.820838 -0.535262  0
0.904455 -0.528229  0
0.976509 -0.555865  0
1.05704 -0.587154  0
1.14831 -0.585022  0
1.23421 -0.505377  0
1.31225 -0.469244  0
1.35183 -0.40213  0
1.49841 -0.371856  0
1.68759 -0.15301  0
1.75621 -0.144168  0
1.824 -0.122735  0
1.89685 -0.112135  0
1.95659 -0.10199  0
2.02059 -0.0938346  0
2.0444 -0.101939  0
2.05868 -0.0761314  0
1.04224 -0.0761314  0
0 0  0
0 0  0
0 0  0
0 0  0
0 0  0
0 0  0
0 0  0
0 0  0
0 0  0
0 0  0
0 0  0
0 0  0
0 0  0
0 0  0
0 0  0
0 0  0
0 0  0
0 0  0
0 0  0
0 0  0
0 0  0
0 0  0
0 0  0
0.04012 -0.495188  0
0.120815 -0.500154  0
0.203137 -0.509298  0
0.287289 -0.519299  0
0.374271 -0.531828  0
0.4568 -0.533365  0
0.531216 -0.542653  0
0.604815 -0.568041  0
0.682934 -0.605111  0
0.767417 -0.632653  0
0.842164 -0.597636  0
0.911219 -0.63321  0
0.962767 -0.647542  0
0.97651 -0.635289  0
1.10708 -0.589562  0
1.2414 -0.254413  0
1.29848 -0.201065  0
0.675915 -0.201065  0
0 0  0
0 0  0
0 0  0
0 0  0
0 0  0
0 0  0
0 0  0
0 0  0
0 0  0
0 0  0
0 0  0
0 0  0
0 0  0
0 0  0
0 0  0
0 0  0
0 0  0
0 0  0
0 0  0
0 0  0
0 0  0
0 0  0
0 0  0
0 0  0
0 0  0
0 0  0
0 0  0
0 0  0
0 0  0
0 0  0
0 0  0
0 0  0
0.0393987 -0.580578  0
0.118528 -0.58606  0
0.197117 -0.595517  0
0.276595 -0.607998  0
0.361038 -0.625844  0
0.434748 -0.604012  0
0.503916 -0.621183  0
0.576413 -0.641208  0
0.631947 -0.671235  0
0.654265 -0.678965  0
0.784904 -0.653925  0
0.927418 -0.335508  0
0.944904 -0.330642  0
0.963513 -0.317645  0
0.488255 -0.317645  0
0 0  0
0 0  0
0 0  0
0 0  0
0 0  0
0 0  0
0 0  0
0 0  0
0 0  0
0 0  0
0 0  0
0 0  0
0 0  0
0 0  0
0 0  0
0 0  0
0 0  0
0 0  0
0 0  0
0 0  0
0 0  0
0 0  0
0 0  0
0 0  0
0 0  0
0 0  0
0 0  0
0 0  0
0 0  0
0 0  0
0 0  0
0 0  0
0 0  0
0 0  0
0 0  0
0.0416655 -0.66453  0
0.115191 -0.660447  0
0.190915 -0.681036  0
0.24989 -0.666565  0
0.265001 -0.672468  0
0.378101 -0.653183  0
0.524179 -0.330232  0
0.592958 -0.337212  0
0.634217 -0.346777  0
0.646971 -0.339482  0
0.327133 -0.339482  0
0 0  0
0 0  0
0 0  0
0 0  0
0 0  0
0 0  0
0 0  0
0 0  0
0 0  0
0 0  0
0 0  0
0 0  0
0 0  0
0 0  0
0 0  0
0 0  0
0 0  0
0 0  0
0 0  0
0 0  0
0 0  0
0 0  0
0 0  0
0 0  0
0 0  0
0 0  0
0 0  0
0 0  0
0 0  0
0 0  0
0 0  0
0 0  0
0 0  0
0 0  0
0 0  0
0 0  0
0 0  0
0 0  0
0 0  0
0.0347211 -0.353098  0
0.124543 -0.346153  0
0.185599 -0.36245  0
0.223674 -0.340838  0
0.260397 -0.336234  0
0.132501 -0.336234  0
0 0  0
0 0  0
0 0  0
0 0  0
0 0  0
0 0  0
0 0  0
0 0  0
0 0  0
0 0  0
0 0  0
0 0  0
0 0  0
0 0  0
0 0  0
0 0  0
0 0  0
0 0  0
0 0  0
0 0  0
0 0  0
0 0  0
0 0  0
0 0  0
0 0  0
0 0  0
0 0  0
0 0  0
0 0  0
0 0  0
0 0  0
0 0  0
0 0  0
0 0  0
0 0  0
0 0  0
0 0  0
0 0  0
0 0  0
0 0  0
0 0  0
0 0  0
0 0  0
0 0  0
0 0  0
0 0  0
0 0  0
0 0  0
0 0  0
0 0  0
0 0  0
0 0  0
0 0  0
0 0  0
0 0  0
0 0  0
0 0  0
0 0  0
0 0  0
0 0  0
0 0  0
0 0  0
0 0  0
0 0  0
0 0  0
0 0  0
0 0  0
0 0  0
0 0  0
0 0  0
0 0  0
0 0  0
0 0  0
0 0  0
0 0  0
0 0  0
0 0  0
0 0  0
0 0  0
0 0  0
0 0  0
0 0  0
0 0  0
0 0  0
0 0  0
0 0  0
0 0  0
0 0  0
0 0  0
0 0  0
0 0  0
0 0  0
0 0  0
0 0  0
0 0  0
0 0  0
0 0  0
0 0  0
0 0  0
0 0  0
0 0  0
0 0  0
0 0  0
0 0  0
0 0  0
0 0  0
0 0  0
0 0  0
0 0  0
0 0  0
0 0  0
0 0  0
0 0  0
0 0  0
0 0  0
0 0  0
0 0  0
0 0  0
0 0  0
0 0  0
0 0  0
0 0  0
0 0  0
0 0  0
0 0  0
0 0  0
0 0  0
0 0  0
0 0  0
0 0  0
0 0  0
0 0  0
0 0  0
0 0  0
0 0  0
0 0  0
0 0  0
0 0  0
0 0  0
0 0  0
0 0  0
0 0  0
0 0  0
0 0  0
0 0  0
0 0  0
0 0  0
0 0  0
0 0  0
0 0  0
0 0  0
0 0  0
0 0  0
0 0  0
0 0  0
0 0  0
0 0  0
0 0  0
0 0  0
0 0  0
0 0  0
0 0  0
0 0  0
0 0  0
0 0  0
0 0  0
0 0  0
0 0  0
0 0  0
0 0  0
0 0  0
0 0  0
0 0  0
0 0  0
0 0  0
0 0  0
0 0  0
0 0  0
0 0  0
0 0  0
0 0  0
0 0  0
0 0  0
0 0  0
0 0  0
0 0  0
0 0  0
0 0  0
0 0  0
0 0  0
0 0  0
0 0  0
0 0  0
0 0  0
0 0  0
0 0  0
0 0  0
0 0  0
0 0  0
0 0  0
0 0  0
0 0  0
0 0  0
0 0  0
0 0  0
0 0  0
0 0  0
0 0  0
0 0  0
0 0  0
0 0  0
0 0  0
0 0  0
0 0  0
0 0  0
0 0  0
0 0  0
0 0  0
0 0  0
0 0  0
0 0  0
0 0  0
0 0  0
0 0  0
0 0  0
0 0  0
0 0  0
0 0  0
0 0  0
0 0  0
0 0  0
0 0  0
0 0  0
0 0  0
0 0  0
0 0  0
0 0  0
0 0  0
0 0  0
0 0  0
0 0  0
0 0  0
0 0  0
0 0  0
0 0  0
0 0  0
0 0  0
0 0  0
0 0  0
0 0  0
0 0  0
0 0  0
0 0  0
0 0  0
0 0  0
0 0  0
0 0  0
0 0  0
0 0  0
0 0  0
0 0  0
0 0  0
0 0  0
0 0  0
0 0  0
0 0  0
0 0  0
0 0  0
0 0  0
0 0  0
0 0  0
0 0  0
0 0  0
0 0  0
0 0  0
0 0  0
0 0  0
0 0  0
0 0  0
0 0  0
0 0  0
0 0  0
0 0  0
0 0  0
0 0  0
0 0  0
0 0  0
0 0  0
0 0  0
0 0  0
0 0  0
0 0  0
0 0  0
0 0  0
0 0  0
0 0  0
0 0  0
0 0  0
0 0  0
0 0  0
0 0  0
0 0  0
0 0  0
0 0  0
0 0  0
0 0  0
0 0  0
0 0  0
0 0  0
0 0  0
0 0  0
0 0  0
0 0  0
0 0  0
0 0  0
0 0  0
0 0  0
0 0  0
0 0  0
0 0  0
0 0  0
0 0  0
0 0  0
0 0  0
0 0  0
0 0  0
0 0  0
0 0  0
0 0  0
0 0  0
0 0  0
0 0  0
0 0  0
0 0  0
0 0  0
0 0  0
0 0  0
0 0  0
0 0  0
0 0  0
0 0  0
0 0  0
0 0  0
0 0  0
0 0  0
0 0  0
0 0  0
0 0  0
0 0  0
0 0  0
0 0  0
0 0  0
0 0  0
0 0  0
0 0  0
0 0  0
0 0  0
0 0  0
0 0  0
0 0  0
0 0  0
0 0  0
0 0  0
0 0  0
0 0  0
0 0  0
0 0  0
0 0  0
0 0  0
0 0  0
0 0  0
0 0  0
0 0  0
0 0  0
0 0  0
0 0  0
0 0  0
0 0  0
0 0  0
0 0  0
0 0  0
0 0  0
0 0  0
0 0  0
0 0  0
0 0  0
0 0  0
0 0  0
0 0  0
0 0  0
0 0  0
0 0  0
0 0  0
0 0  0
0 0  0
0 0  0
0 0  0
0 0  0
0 0  0
0 0  0
0 0  0
0 0  0
0 0  0
0 0  0
0 0  0
0 0  0
0 0  0
0 0  0
0 0  0
0 0  0
0 0  0
0 0  0
0 0  0
0 0  0
0 0  0
0 0  0
0 0  0
0 0  0
0 0  0
0 0  0
0 0  0
0 0  0
0 0  0
0 0  0
0 0  0
0 0  0
0 0  0
0 0  0
0 0  0
0 0  0
0 0  0
0 0  0
0 0  0
0 0  0
0 0  0
0 0  0
0 0  0
0 0  0
0 0  0
0 0  0
0 0  0
0 0  0
0 0  0
0 0  0
0 0  0
0 0  0
0 0  0
0 0  0
0 0  0
0 0  0
0 0  0
0 0  0
0 0  0
0 0  0
0 0  0
0 0  0
0 0  0
0 0  0
0 0  0
0 0  0
0 0  0
0 0  0
0 0  0
0 0  0
0 0  0
0 0  0
0 0  0
0 0  0
0 0  0
0 0  0
0 0  0
0 0  0
0 0  0
0 0  0
0 0  0
0 0  0
0 0  0
0 0  0
0 0  0
0 0  0
0 0  0
0 0  0
0 0  0
0 0  0
0 0  0
0 0  0
0 0  0
0 0  0
0 0  0
0 0  0
0 0  0
0 0  0
0 0  0
0 0  0
0 0  0
0 0  0
0 0  0
0 0  0
0 0  0
0 0  0
0 0  0
0 0  0
0 0  0
0 0  0
0 0  0
0 0  0
0 0  0
0 0  0
0 0  0
0 0  0
0 0  0
0 0  0
0 0  0
0 0  0
0 0  0
0 0  0
0 0  0
0 0  0
0 0  0
0 0  0
0 0  0
0 0  0
0 0  0
0 0  0
0 0  0
0 0  0
0 0  0
0 0  0
0 0  0
0 0  0
0 0  0
0 0  0
0 0  0
0 0  0
0 0  0
0 0  0
0 0  0
0 0  0
0 0  0
0 0  0
0 0  0
0 0  0
0 0  0
0 0  0
0 0  0
0 0  0
0 0  0
0 0  0
0 0  0
0 0  0
0 0  0
0 0  0
0 0  0
0 0  0
0 0  0
0 0  0
0 0  0
0 0  0
0 0  0
0 0  0
0 0  0
0 0  0
0 0  0
0 0  0
0 0  0
0 0  0
0 0  0
0 0  0
0 0  0
0 0  0
0 0  0
0 0  0
0 0  0
0 0  0
0 0  0
0 0  0
0 0  0
0 0  0
0 0  0
0 0  0
0 0  0
0 0  0
0 0  0
0 0  0
0 0  0
0 0  0
0 0  0
0 0  0
0 0  0
0 0  0
0 0  0
0 0  0
0 0  0
0 0  0

SCALARS pressure double 1
LOOKUP_TABLE default
1.46989
1.47266
1.47136
1.4646
1.45313
1.43927
1.42047
1.39869
1.37063
1.33686
1.29415
1.24022
1.17269
1.09126
0.999815
0.906226
0.816522
0.736041
0.671804
0.624207
0.590016
0.565014
0.542755
0.518997
0.488534
0.450467
0.408575
0.377662
0.349949
0.312154
0.249162
0.150771
0
0
0
0
0
0
0
0
0
0
0
0
0
0
0
0
0
0
1.267
1.26823
1.26485
1.25689
1.24451
1.22748
1.20732
1.1825
1.15325
1.11642
1.07041
1.01495
0.946326
0.862841
0.769536
0.677115
0.587729
0.504523
0.444886
0.404859
0.377728
0.35939
0.341832
0.323553
0.296683
0.253537
0.201132
0.177351
0.162353
0.140415
0.0891471
0
0.00861365
0
0
0
0
0
0
0
0
0
0
0
0
0
0
0
0
0
1.05624
1.05693
1.05125
1.04023
1.02446
1.00301
0.979414
0.951689
0.918501
0.876502
0.824984
0.767952
0.698591
0.611685
0.513658
0.427134
0.338252
0.240456
0.192759
0.170407
0.156718
0.150136
0.143808
0.134737
0.119523
0.0704745
-0.0271584
-0.0264156
-0.0137301
0
-0.0207542
0
0
0
0
0
0
0
0
0
0
0
0
0
0
0
0
0
0
0
0.83913
0.838316
0.830756
0.816231
0.79386
0.766176
0.73768
0.70746
0.67019
0.619957
0.558623
0.503314
0.436748
0.346157
0.232189
0.16947
0.0896532
-0.0723745
-0.0813908
-0.0671076
-0.0672399
-0.054605
-0.0470542
-0.0473012
-0.0203706
-0.058237
0
0
0
0
0
0
0
0
0
0
0
0
0
0
0
0
0
0
0
0
0
0
0
0
0.616556
0.614249
0.604968
0.585853
0.555081
0.514801
0.482466
0.452936
0.414583
0.353458
0.26642
0.227513
0.175363
0.0891365
-0.0972437
-0.0678883
-0.0724589
0
0
0
0
0
0
0
0
0
0
0
0
0
0
0
0
0
0
0
0
0
0
0
0
0
0
0
0
0
0
0
0
0
0.388586
0.385797
0.376985
0.353844
0.31241
0.240936
0.211646
0.192593
0.164236
0.0962092
-0.0804221
-0.0418024
-0.0593192
-0.0635461
0
0
0
0
0
0
0
0
0
0
0
0
0
0
0
0
0
0
0
0
0
0
0
0
0
0
0
0
0
0
0
0
0
0
0
0
0.155458
0.151842
0.151426
0.128298
0.0867348
-0.0818944
-0.0735292
-0.0628285
-0.0525586
-0.055899
0
0
0
0
0
0
0
0
0
0
0
0
0
0
0
0
0
0
0
0
0
0
0
0
0
0
0
0
0
0
0
0
0
0
0
0
0
0
0
0
-0.0756997
-0.0901614
-0.0544248
-0.0825546
-0.0134657
0
0
0
0
0
0
0
0
0
0
0
0
0
0
0
0
0
0
0
0
0
0
0
0
0
0
0
0
0
0
0
0
0
0
0
0
0
0
0
0
0
0
0
0
0
0
0
0
0
0
0
0
0
0
0
0
0
0
0
0
0
0
0
0
0
0
0
0
0
0
0
0
0
0
0
0
0
0
0
0
0
0
0
0
0
0
0
0
0
0
0
0
0
0
0
0
0
0
0
0
0
0
0
0
0
0
0
0
0
0
0
0
0
0
0
0
0
0
0
0
0
0
0
0
0
0
0
0
0
0
0
0
0
0
0
0
0
0
0
0
0
0
0
0
0
0
0
0
0
0
0
0
0
0
0
0
0
0
0
0
0
0
0
0
0
0
0
0
0
0
0
0
0
0
0
0
0
0
0
0
0
0
0
0
0
0
0
0
0
0
0
0
0
0
0
0
0
0
0
0
0
0
0
0
0
0
0
0
0
0
0
0
0
0
0
0
0
0
0
0
0
0
0
0
0
0
0
0
0
0
0
0
0
0
0
0
0
0
0
0
0
0
0
0
0
0
0
0
0
0
0
0
0
0
0
0
0
0
0
0
0
0
0
0
0
0
0
0
0
0
0
0
0
0
0
0
0
0
0
0
0
0
0
0
0
0
0
0
0
0
0
0
0
0
0
0
0
0
0
0
0
0
0
0
0
0
0
0
0
0
0
0
0
0
0
0
0
0
0
0
0
0
0
0
0
0
0
0
0
0
0
0
0
0
0
0
0
0
0
0
0
0
0
0
0
0
0
0
0
0
0
0
0
0
0
0
0
0
0
0
0
0
0
0
0
0
0
0
0
0
0
0
0
0
0
0
0
0
0
0
0
0
0
0
0
0
0
0
0
0
0
0
0
0
0
0
0
0
0
0
0
0
0
0
0
0
0
0
0
0
0
0
0
0
0
0
0
0
0
0
0
0
0
0
0
0
0
0
0
0
0
0
0
0
0
0
0
0
0
0
0
0
0
0
0
0
0
0
0
0
0
0
0
0
0
0
0
0
0
0
0
0
0
0
0
0
0
0
0
0
0
0
0
0
0
0
0
0
0
0
0
0
0
0
0
0
0
0
0
0
0
0
0
0
0
0
0
0
0
0
0
0
0
0
0
0
0
0
0
0
0
0
0
0
0
0
0
0
0
0
0
0
0
0
0
0
0
0
0
0
0
0
0
0
0
0
0
0
0
0
0
0
0
0
0
0
0
0
0
0
0
0
0
0
0
0
0
0
0
0
0
0
0
0
0
0
0
0
0
0
0
0
0
0
0
0
0
0
0
0
0
0
0
0
0
0
0
0
0
0
0
0
0
0
0
0
0
0
0
0
0
0
0
0
0
0
0
0
0
0
0
0
0
0
0
0
0
0
0
0
0
0
0
0
0
0
0
0
0
0
0
0
0
0
0
0
0
0
0
0
0
0
0
0
0
SCALARS rhs double 1
LOOKUP_TABLE default
-5.33776
-5.38316
-5.39928
-5.4247
-5.43237
-5.51293
-5.54988
-5.63597
-5.69815
-5.81751
-5.94969
-6.04351
-6.0619
-6.00396
-5.84622
-5.66442
-5.51597
-5.3939
-5.27265
-5.16055
-5.08956
-5.07399
-5.04954
-5.05474
-5.01531
-4.97501
-4.94483
-4.92582
-4.93511
-4.92555
-4.88599
-5.07905
1.35539
0
0
0
0
0
0
0
0
0
0
0
0
0
0
0
0
0
-0.269594
-0.320842
-0.337262
-0.347258
-0.399143
-0.419411
-0.475067
-0.514472
-0.58706
-0.731412
-0.778793
-0.862869
-0.904182
-0.805817
-0.6127
-0.442833
-0.348147
-0.228235
-0.12843
-0.0543367
-0.00596936
-0.0280537
0.00560522
-0.0126114
-0.0536283
0.0980021
0.227276
0.128566
0.107437
0.052636
0.306861
1.75897
0.71548
0
0
0
0
0
0
0
0
0
0
0
0
0
0
0
0
0
-0.26176
-0.316417
-0.321272
-0.341061
-0.381854
-0.389744
-0.435777
-0.478041
-0.563264
-0.639946
-0.661961
-0.737074
-0.783023
-0.63501
-0.342895
-0.2422
-0.194098
0.0426973
0.0815675
0.144469
0.11241
0.125498
0.0877419
0.0347351
0.0924244
0.133219
1.7377
0.997986
1.57347
1.75897
0.71548
0
0
0
0
0
0
0
0
0
0
0
0
0
0
0
0
0
0
0
-0.250829
-0.300406
-0.311059
-0.340879
-0.347567
-0.370791
-0.382519
-0.423206
-0.508304
-0.51565
-0.483294
-0.553401
-0.581777
-0.362654
0.0898978
0.0856678
0.114772
1.61776
22.4254
16.0416
11.7861
7.00418
3.94582
1.15791
1.57347
1.75897
0
0
0
0
0
0
0
0
0
0
0
0
0
0
0
0
0
0
0
0
0
0
0
0
-0.239733
-0.287854
-0.301687
-0.320608
-0.332019
-0.349216
-0.314037
-0.354892
-0.426876
-0.405352
-0.147698
-0.163716
-0.17211
0.113104
38.5713
29.8953
17.9433
9.00999
0
0
0
0
0
0
0
0
0
0
0
0
0
0
0
0
0
0
0
0
0
0
0
0
0
0
0
0
0
0
0
0
-0.229398
-0.273768
-0.286668
-0.289712
-0.314255
-0.156647
-0.0831287
-0.0986082
-0.142437
-0.0748859
1.42559
1.24327
11.812
34.6333
0
0
0
0
0
0
0
0
0
0
0
0
0
0
0
0
0
0
0
0
0
0
0
0
0
0
0
0
0
0
0
0
0
0
0
0
-0.0474712
-0.104809
-0.0586368
-0.087343
-0.0241623
0.783054
1.64592
1.52512
0.537393
1.47098
2.53607
14.3387
26.3021
0
0
0
0
0
0
0
0
0
0
0
0
0
0
0
0
0
0
0
0
0
0
0
0
0
0
0
0
0
0
0
0
0
0
0
0
0
1.03703
0.99111
0.935083
0.541631
0.49828
0.777197
0.916648
3.70181
7.89906
8.9678
11.6117
27.2717
0
0
0
0
0
0
0
0
0
0
0
0
0
0
0
0
0
0
0
0
0
0
0
0
0
0
0
0
0
0
0
0
0
0
0
0
0
0
2.45787
2.59584
4.01582
4.53242
6.43299
7.47839
9.23983
7.89527
5.98596
8.49533
41.2731
0
0
0
0
0
0
0
0
0
0
0
0
0
0
0
0
0
0
0
0
0
0
0
0
0
0
0
0
0
0
0
0
0
0
0
0
0
0
0
9.36633
9.33066
8.04142
9.25902
7.69325
7.78758
9.09454
10.208
11.1703
21.7759
3.2041
0
0
0
0
0
0
0
0
0
0
0
0
0
0
0
0
0
0
0
0
0
0
0
0
0
0
0
0
0
0
0
0
0
0
0
0
0
0
0
7.92952
10.0992
10.1145
8.86149
11.2589
12.4355
10.8064
8.57914
8.60392
43.2779
0
0
0
0
0
0
0
0
0
0
0
0
0
0
0
0
0
0
0
0
0
0
0
0
0
0
0
0
0
0
0
0
0
0
0
0
0
0
0
0
13.2058
10.8439
11.0393
13.0106
10.7272
10.2862
9.48307
9.57063
8.67562
33.2233
0
0
0
0
0
0
0
0
0
0
0
0
0
0
0
0
0
0
0
0
0
0
0
0
0
0
0
0
0
0
0
0
0
0
0
0
0
0
0
0
8.71388
9.82855
9.83715
7.65861
8.9401
7.02241
6.34758
6.44313
5.90605
26.1906
0
0
0
0
0
0
0
0
0
0
0
0
0
0
0
0
0
0
0
0
0
0
0
0
0
0
0
0
0
0
0
0
0
0
0
0
0
0
0
0
7.061
5.55892
5.71513
6.83869
5.56628
5.6724
5.42452
5.43401
4.26976
17.1298
0
0
0
0
0
0
0
0
0
0
0
0
0
0
0
0
0
0
0
0
0
0
0
0
0
0
0
0
0
0
0
0
0
0
0
0
0
0
0
0
6.55202
6.55536
6.55982
5.31204
5.40986
6.30896
5.08555
5.09432
5.2091
10.3371
0
0
0
0
0
0
0
0
0
0
0
0
0
0
0
0
0
0
0
0
0
0
0
0
0
0
0
0
0
0
0
0
0
0
0
0
0
0
0
0
5.52783
5.53996
5.54196
5.54121
5.54439
4.52522
5.16545
5.22779
16.4546
0
0
0
0
0
0
0
0
0
0
0
0
0
0
0
0
0
0
0
0
0
0
0
0
0
0
0
0
0
0
0
0
0
0
0
0
0
0
0
0
0
3.60674
3.66202
3.98033
3.98143
3.98244
3.98396
3.23505
3.31189
11.5415
0
0
0
0
0
0
0
0
0
0
0
0
0
0
0
0
0
0
0
0
0
0
0
0
0
0
0
0
0
0
0
0
0
0
0
0
0
0
0
0
0
6.01719
6.36025
5.75447
5.75462
5.75506
5.75536
5.75588
5.76119
8.30564
0
0
0
0
0
0
0
0
0
0
0
0
0
0
0
0
0
0
0
0
0
0
0
0
0
0
0
0
0
0
0
0
0
0
0
0
0
0
0
0
0
3.29611
2.74112
2.74112
2.74112
2.74112
2.74112
2.74112
2.74112
2.74112
0
0
0
0
0
0
0
0
0
0
0
0
0
0
0
0
0
0
0
0
0
0
0
0
0
0
0
0
0
0
0
0
0
0
0
0
0
0
0
0
0
0
0
0
0
0
0
0
0
0
0
0
0
0
0
0
0
0
0
0
0
0
0
0
0
0
0
0
0
0
0
0
0
0
0
0
0
0
0
0
0
0
0
0
0
0
0
0
0
0
0
