# vtk DataFile Version 4.0
Nusif Fluid VTK output
ASCII
DATASET STRUCTURED_POINTS
DIMENSIONS 50 20 1
ORIGIN 0 0 0 
SPACING 0.2 0.2 1
POINT_DATA 1000 

VECTORS velocity double
0.0362723 -0.0366174  0
0.10832 -0.0367954  0
0.179961 -0.0368295  0
0.251363 -0.0366149  0
0.321595 -0.0358651  0
0.390642 -0.0355094  0
0.458929 -0.0351115  0
0.526889 -0.0352042  0
0.594838 -0.0350341  0
0.662174 -0.0345187  0
0.728503 -0.0342463  0
0.794183 -0.0337583  0
0.858868 -0.0333485  0
0.922382 -0.0327302  0
0.98561 -0.0328667  0
1.04981 -0.0338311  0
1.11676 -0.0356611  0
1.18689 -0.0369777  0
1.25506 -0.0337249  0
1.31676 -0.0304993  0
1.373 -0.0282742  0
1.42688 -0.0281362  0
1.47904 -0.026554  0
1.52948 -0.0264249  0
1.57761 -0.0242286  0
1.62502 -0.0257259  0
1.67246 -0.0242304  0
1.72099 -0.0268383  0
1.76972 -0.0244252  0
1.81858 -0.0269596  0
1.86657 -0.023567  0
1.91325 -0.0256354  0
1.95902 -0.0226738  0
2.00317 -0.0240015  0
2.04733 -0.0226907  0
2.09037 -0.0228711  0
2.13364 -0.0229468  0
2.17571 -0.0216552  0
2.21688 -0.0220443  0
2.2563 -0.0199186  0
2.29407 -0.0203864  0
2.33145 -0.0195274  0
2.37077 -0.0223219  0
2.41756 -0.0270093  0
2.47539 -0.0333571  0
2.53451 -0.0282934  0
2.56559 -0.00532537  0
2.56499 0.00339393  0
2.5566 0.00245795  0
2.55288 0.000774979  0
0.0358289 -0.110137  0
0.107337 -0.110526  0
0.178816 -0.110821  0
0.250316 -0.110224  0
0.319912 -0.106888  0
0.38783 -0.106395  0
0.454997 -0.104645  0
0.522024 -0.105618  0
0.589466 -0.104769  0
0.655568 -0.103064  0
0.720319 -0.101769  0
0.784064 -0.100621  0
0.846989 -0.0991222  0
0.908926 -0.0974121  0
0.970259 -0.097797  0
1.03288 -0.100777  0
1.09964 -0.107458  0
1.1724 -0.113165  0
1.24012 -0.0984631  0
1.29763 -0.090055  0
1.35169 -0.0840879  0
1.40481 -0.0843865  0
1.45753 -0.0802679  0
1.50942 -0.0800863  0
1.55981 -0.0741845  0
1.60946 -0.0778638  0
1.65848 -0.073649  0
1.70778 -0.0802929  0
1.75694 -0.0739441  0
1.806 -0.080426  0
1.85436 -0.0715162  0
1.90165 -0.0767238  0
1.94796 -0.0687243  0
1.99278 -0.071998  0
2.03709 -0.0682244  0
2.08015 -0.0685094  0
2.12296 -0.0684594  0
2.16452 -0.0648447  0
2.20516 -0.0657374  0
2.24432 -0.0598778  0
2.28209 -0.0610318  0
2.319 -0.0582438  0
2.35613 -0.0651214  0
2.3966 -0.0765404  0
2.44407 -0.0942045  0
2.498 -0.0855596  0
2.53281 -0.0177541  0
2.5369 0.00979723  0
2.53849 0.000317272  0
2.54309 0.00154996  0
0.0350622 -0.183161  0
0.105228 -0.183906  0
0.176226 -0.185317  0
0.249324 -0.185761  0
0.3173 -0.174126  0
0.382036 -0.17701  0
0.447203 -0.171562  0
0.511078 -0.174756  0
0.576524 -0.173562  0
0.640746 -0.169876  0
0.70307 -0.167158  0
0.764468 -0.165537  0
0.825234 -0.163074  0
0.885281 -0.160476  0
0.944862 -0.160852  0
1.00493 -0.165529  0
1.06857 -0.178151  0
1.14094 -0.192703  0
1.19975 -0.149247  0
1.25872 -0.158313  0
1.31193 -0.125638  0
1.37402 -0.160577  0
1.42474 -0.110073  0
1.48598 -0.165921  0
1.53306 -0.088394  0
1.59283 -0.17556  0
1.63701 -0.0717372  0
1.69512 -0.192121  0
1.73728 -0.0559851  0
1.7896 -0.202306  0
1.83795 -0.0488739  0
1.87854 -0.189789  0
1.93704 -0.0629913  0
1.96675 -0.154814  0
2.02945 -0.0949431  0
2.05542 -0.113372  0
2.11219 -0.125701  0
2.14273 -0.0822361  0
2.18752 -0.13632  0
2.22573 -0.0691945  0
2.2608 -0.12709  0
2.30289 -0.0737188  0
2.33261 -0.119036  0
2.36984 -0.102858  0
2.38988 -0.137938  0
2.40613 -0.114532  0
2.45419 -0.0696949  0
2.52661 0.0064033  0
2.54412 -0.00214067  0
2.54143 0.000774979  0
0.0336303 -0.254211  0
0.101155 -0.255573  0
0.170428 -0.259272  0
0.247034 -0.2669  0
0.313672 -0.231618  0
0.367186 -0.240351  0
0.432654 -0.241424  0
0.498355 -0.23702  0
0.555119 -0.236086  0
0.618104 -0.237215  0
0.682199 -0.22881  0
0.74099 -0.2266  0
0.80253 -0.226889  0
0.861235 -0.218006  0
0.920436 -0.224628  0
0.975491 -0.219439  0
1.02327 -0.238215  0
1.04878 -0.233031  0
1.14839 -0.201025  0
1.24403 -0.0987569  0
1.3175 -0.0698238  0
1.36055 -0.104327  0
1.43267 -0.0563596  0
1.46806 -0.112259  0
1.54423 -0.0384381  0
1.57671 -0.123422  0
1.65226 -0.0223185  0
1.67927 -0.138666  0
1.74746 -0.00646623  0
1.78406 -0.14884  0
1.82781 -0.000924645  0
1.89456 -0.1387  0
1.90516 -0.0169408  0
1.99922 -0.106818  0
1.99037 -0.0494094  0
2.0862 -0.0677334  0
2.08351 -0.0801889  0
2.15516 -0.0390465  0
2.1777 -0.0926265  0
2.21954 -0.0292353  0
2.26657 -0.0864445  0
2.29268 -0.0350025  0
2.35093 -0.0762368  0
2.3707 -0.0533273  0
2.39382 -0.0770906  0
2.3863 -0.0572662  0
1.20306 -0.0572662  0
0 0  0
0 0  0
0 0  0
0.0321675 -0.321306  0
0.0950656 -0.321527  0
0.14494 -0.315035  0
0.164083 -0.309499  0
0.257295 -0.283264  0
0.378066 -0.134226  0
0.431105 -0.139395  0
0.491218 -0.132677  0
0.558327 -0.132258  0
0.615021 -0.135885  0
0.67424 -0.129175  0
0.741404 -0.127926  0
0.796815 -0.129589  0
0.860352 -0.122211  0
0.919079 -0.128706  0
0.978646 -0.120855  0
1.01893 -0.131861  0
1.03343 -0.116515  0
0.524388 -0.116515  0
0 0  0
0 0  0
0 0  0
0 0  0
0 0  0
0 0  0
0 0  0
0 0  0
0 0  0
0 0  0
0 0  0
0 0  0
0 0  0
0 0  0
0 0  0
0 0  0
0 0  0
0 0  0
0 0  0
0 0  0
0 0  0
0 0  0
0 0  0
0 0  0
0 0  0
0 0  0
0 0  0
0 0  0
0 0  0
0 0  0
0 0  0
0.0315594 -0.176737  0
0.0854182 -0.176129  0
0.12356 -0.167089  0
0.151743 -0.154749  0
0.0820414 -0.154749  0
0 0  0
0 0  0
0 0  0
0 0  0
0 0  0
0 0  0
0 0  0
0 0  0
0 0  0
0 0  0
0 0  0
0 0  0
0 0  0
0 0  0
0 0  0
0 0  0
0 0  0
0 0  0
0 0  0
0 0  0
0 0  0
0 0  0
0 0  0
0 0  0
0 0  0
0 0  0
0 0  0
0 0  0
0 0  0
0 0  0
0 0  0
0 0  0
0 0  0
0 0  0
0 0  0
0 0  0
0 0  0
0 0  0
0 0  0
0 0  0
0 0  0
0 0  0
0 0  0
0 0  0
0 0  0
0 0  0
0 0  0
0 0  0
0 0  0
0 0  0
0 0  0
0 0  0
0 0  0
0 0  0
0 0  0
0 0  0
0 0  0
0 0  0
0 0  0
0 0  0
0 0  0
0 0  0
0 0  0
0 0  0
0 0  0
0 0  0
0 0  0
0 0  0
0 0  0
0 0  0
0 0  0
0 0  0
0 0  0
0 0  0
0 0  0
0 0  0
0 0  0
0 0  0
0 0  0
0 0  0
0 0  0
0 0  0
0 0  0
0 0  0
0 0  0
0 0  0
0 0  0
0 0  0
0 0  0
0 0  0
0 0  0
0 0  0
0 0  0
0 0  0
0 0  0
0 0  0
0 0  0
0 0  0
0 0  0
0 0  0
0 0  0
0 0  0
0 0  0
0 0  0
0 0  0
0 0  0
0 0  0
0 0  0
0 0  0
0 0  0
0 0  0
0 0  0
0 0  0
0 0  0
0 0  0
0 0  0
0 0  0
0 0  0
0 0  0
0 0  0
0 0  0
0 0  0
0 0  0
0 0  0
0 0  0
0 0  0
0 0  0
0 0  0
0 0  0
0 0  0
0 0  0
0 0  0
0 0  0
0 0  0
0 0  0
0 0  0
0 0  0
0 0  0
0 0  0
0 0  0
0 0  0
0 0  0
0 0  0
0 0  0
0 0  0
0 0  0
0 0  0
0 0  0
0 0  0
0 0  0
0 0  0
0 0  0
0 0  0
0 0  0
0 0  0
0 0  0
0 0  0
0 0  0
0 0  0
0 0  0
0 0  0
0 0  0
0 0  0
0 0  0
0 0  0
0 0  0
0 0  0
0 0  0
0 0  0
0 0  0
0 0  0
0 0  0
0 0  0
0 0  0
0 0  0
0 0  0
0 0  0
0 0  0
0 0  0
0 0  0
0 0  0
0 0  0
0 0  0
0 0  0
0 0  0
0 0  0
0 0  0
0 0  0
0 0  0
0 0  0
0 0  0
0 0  0
0 0  0
0 0  0
0 0  0
0 0  0
0 0  0
0 0  0
0 0  0
0 0  0
0 0  0
0 0  0
0 0  0
0 0  0
0 0  0
0 0  0
0 0  0
0 0  0
0 0  0
0 0  0
0 0  0
0 0  0
0 0  0
0 0  0
0 0  0
0 0  0
0 0  0
0 0  0
0 0  0
0 0  0
0 0  0
0 0  0
0 0  0
0 0  0
0 0  0
0 0  0
0 0  0
0 0  0
0 0  0
0 0  0
0 0  0
0 0  0
0 0  0
0 0  0
0 0  0
0 0  0
0 0  0
0 0  0
0 0  0
0 0  0
0 0  0
0 0  0
0 0  0
0 0  0
0 0  0
0 0  0
0 0  0
0 0  0
0 0  0
0 0  0
0 0  0
0 0  0
0 0  0
0 0  0
0 0  0
0 0  0
0 0  0
0 0  0
0 0  0
0 0  0
0 0  0
0 0  0
0 0  0
0 0  0
0 0  0
0 0  0
0 0  0
0 0  0
0 0  0
0 0  0
0 0  0
0 0  0
0 0  0
0 0  0
0 0  0
0 0  0
0 0  0
0 0  0
0 0  0
0 0  0
0 0  0
0 0  0
0 0  0
0 0  0
0 0  0
0 0  0
0 0  0
0 0  0
0 0  0
0 0  0
0 0  0
0 0  0
0 0  0
0 0  0
0 0  0
0 0  0
0 0  0
0 0  0
0 0  0
0 0  0
0 0  0
0 0  0
0 0  0
0 0  0
0 0  0
0 0  0
0 0  0
0 0  0
0 0  0
0 0  0
0 0  0
0 0  0
0 0  0
0 0  0
0 0  0
0 0  0
0 0  0
0 0  0
0 0  0
0 0  0
0 0  0
0 0  0
0 0  0
0 0  0
0 0  0
0 0  0
0 0  0
0 0  0
0 0  0
0 0  0
0 0  0
0 0  0
0 0  0
0 0  0
0 0  0
0 0  0
0 0  0
0 0  0
0 0  0
0 0  0
0 0  0
0 0  0
0 0  0
0 0  0
0 0  0
0 0  0
0 0  0
0 0  0
0 0  0
0 0  0
0 0  0
0 0  0
0 0  0
0 0  0
0 0  0
0 0  0
0 0  0
0 0  0
0 0  0
0 0  0
0 0  0
0 0  0
0 0  0
0 0  0
0 0  0
0 0  0
0 0  0
0 0  0
0 0  0
0 0  0
0 0  0
0 0  0
0 0  0
0 0  0
0 0  0
0 0  0
0 0  0
0 0  0
0 0  0
0 0  0
0 0  0
0 0  0
0 0  0
0 0  0
0 0  0
0 0  0
0 0  0
0 0  0
0 0  0
0 0  0
0 0  0
0 0  0
0 0  0
0 0  0
0 0  0
0 0  0
0 0  0
0 0  0
0 0  0
0 0  0
0 0  0
0 0  0
0 0  0
0 0  0
0 0  0
0 0  0
0 0  0
0 0  0
0 0  0
0 0  0
0 0  0
0 0  0
0 0  0
0 0  0
0 0  0
0 0  0
0 0  0
0 0  0
0 0  0
0 0  0
0 0  0
0 0  0
0 0  0
0 0  0
0 0  0
0 0  0
0 0  0
0 0  0
0 0  0
0 0  0
0 0  0
0 0  0
0 0  0
0 0  0
0 0  0
0 0  0
0 0  0
0 0  0
0 0  0
0 0  0
0 0  0
0 0  0
0 0  0
0 0  0
0 0  0
0 0  0
0 0  0
0 0  0
0 0  0
0 0  0
0 0  0
0 0  0
0 0  0
0 0  0
0 0  0
0 0  0
0 0  0
0 0  0
0 0  0
0 0  0
0 0  0
0 0  0
0 0  0
0 0  0
0 0  0
0 0  0
0 0  0
0 0  0
0 0  0
0 0  0
0 0  0
0 0  0
0 0  0
0 0  0
0 0  0
0 0  0
0 0  0
0 0  0
0 0  0
0 0  0
0 0  0
0 0  0
0 0  0
0 0  0
0 0  0
0 0  0
0 0  0
0 0  0
0 0  0
0 0  0
0 0  0
0 0  0
0 0  0
0 0  0
0 0  0
0 0  0
0 0  0
0 0  0
0 0  0
0 0  0
0 0  0
0 0  0
0 0  0
0 0  0
0 0  0
0 0  0
0 0  0
0 0  0
0 0  0
0 0  0
0 0  0
0 0  0
0 0  0
0 0  0
0 0  0
0 0  0
0 0  0
0 0  0
0 0  0
0 0  0
0 0  0
0 0  0
0 0  0
0 0  0
0 0  0
0 0  0
0 0  0
0 0  0
0 0  0
0 0  0
0 0  0
0 0  0
0 0  0
0 0  0
0 0  0
0 0  0
0 0  0
0 0  0
0 0  0
0 0  0
0 0  0
0 0  0
0 0  0
0 0  0
0 0  0
0 0  0
0 0  0
0 0  0
0 0  0
0 0  0
0 0  0
0 0  0
0 0  0
0 0  0
0 0  0
0 0  0
0 0  0
0 0  0
0 0  0
0 0  0
0 0  0
0 0  0
0 0  0
0 0  0
0 0  0
0 0  0
0 0  0
0 0  0
0 0  0
0 0  0
0 0  0
0 0  0
0 0  0
0 0  0
0 0  0
0 0  0
0 0  0
0 0  0
0 0  0
0 0  0
0 0  0
0 0  0
0 0  0
0 0  0
0 0  0
0 0  0
0 0  0
0 0  0
0 0  0
0 0  0
0 0  0
0 0  0
0 0  0
0 0  0
0 0  0
0 0  0
0 0  0
0 0  0
0 0  0
0 0  0
0 0  0
0 0  0
0 0  0
0 0  0
0 0  0
0 0  0
0 0  0
0 0  0
0 0  0
0 0  0
0 0  0
0 0  0
0 0  0
0 0  0
0 0  0
0 0  0
0 0  0
0 0  0
0 0  0
0 0  0
0 0  0
0 0  0
0 0  0
0 0  0
0 0  0
0 0  0
0 0  0
0 0  0
0 0  0
0 0  0
0 0  0
0 0  0
0 0  0
0 0  0
0 0  0
0 0  0
0 0  0
0 0  0
0 0  0
0 0  0
0 0  0
0 0  0
0 0  0
0 0  0
0 0  0
0 0  0
0 0  0
0 0  0
0 0  0
0 0  0
0 0  0
0 0  0
0 0  0
0 0  0
0 0  0
0 0  0
0 0  0
0 0  0
0 0  0
0 0  0
0 0  0
0 0  0
0 0  0
0 0  0
0 0  0
0 0  0
0 0  0
0 0  0
0 0  0
0 0  0
0 0  0
0 0  0
0 0  0
0 0  0
0 0  0
0 0  0
0 0  0
0 0  0
0 0  0
0 0  0
0 0  0
0 0  0
0 0  0
0 0  0
0 0  0
0 0  0
0 0  0
0 0  0
0 0  0
0 0  0
0 0  0
0 0  0
0 0  0
0 0  0
0 0  0
0 0  0
0 0  0
0 0  0
0 0  0
0 0  0
0 0  0
0 0  0
0 0  0
0 0  0
0 0  0
0 0  0
0 0  0
0 0  0
0 0  0
0 0  0
0 0  0
0 0  0
0 0  0
0 0  0
0 0  0
0 0  0
0 0  0
0 0  0
0 0  0
0 0  0
0 0  0
0 0  0
0 0  0
0 0  0
0 0  0
0 0  0
0 0  0
0 0  0
0 0  0
0 0  0
0 0  0
0 0  0
0 0  0
0 0  0
0 0  0
0 0  0
0 0  0
0 0  0
0 0  0
0 0  0
0 0  0
0 0  0
0 0  0
0 0  0
0 0  0

SCALARS pressure double 1
LOOKUP_TABLE default
0.88125
0.862754
0.835367
0.800069
0.7621
0.731192
0.708998
0.69293
0.681168
0.671767
0.662659
0.65513
0.64522
0.634353
0.619014
0.59768
0.566426
0.522427
0.472236
0.438805
0.416689
0.407659
0.399179
0.399926
0.394807
0.400237
0.395742
0.403824
0.397169
0.406056
0.397408
0.404648
0.397529
0.401584
0.399233
0.399761
0.401771
0.399042
0.402435
0.398783
0.400755
0.396537
0.39432
0.382549
0.358106
0.310421
0.247226
0.219521
0.215086
0.211626
0.657662
0.641544
0.613539
0.574425
0.528319
0.49623
0.477481
0.463588
0.453349
0.445472
0.438961
0.432314
0.425924
0.416215
0.404988
0.385825
0.356839
0.305689
0.233868
0.2079
0.185506
0.1892
0.172721
0.189417
0.167685
0.194384
0.166192
0.202585
0.164517
0.207693
0.165016
0.203426
0.170611
0.192623
0.18107
0.182755
0.191301
0.1781
0.195549
0.178354
0.193577
0.180414
0.188234
0.177608
0.162709
0.112504
0.00414519
-0.0118825
0.0030017
0
0.42484
0.410697
0.382859
0.335271
0.259287
0.227796
0.221236
0.210746
0.201315
0.199887
0.195604
0.192172
0.190297
0.182951
0.179245
0.166467
0.148872
0.0884301
-0.0679929
-0.0375889
-0.0885662
-0.0199314
-0.104347
0.00618784
-0.126152
0.0310884
-0.148007
0.0617218
-0.172272
0.080076
-0.171028
0.0600466
-0.128495
0.00599657
-0.0626834
-0.0531541
-0.00779764
-0.0869535
0.0127527
-0.0870596
0.00408274
-0.0685701
-0.00988946
-0.0358816
-0.00820096
-0.035085
0
0
0
0
0.183216
0.174085
0.154449
0.105553
-0.0707978
-0.0834183
-0.045268
-0.0586981
-0.0743355
-0.0565789
-0.0632628
-0.0636543
-0.054343
-0.0673909
-0.0517121
-0.0623562
-0.0318986
-0.0488817
0
0
0
0
0
0
0
0
0
0
0
0
0
0
0
0
0
0
0
0
0
0
0
0
0
0
0
0
0
0
0
0
-0.0636186
-0.0661363
-0.0597633
-0.00802306
0
0
0
0
0
0
0
0
0
0
0
0
0
0
0
0
0
0
0
0
0
0
0
0
0
0
0
0
0
0
0
0
0
0
0
0
0
0
0
0
0
0
0
0
0
0
0
0
0
0
0
0
0
0
0
0
0
0
0
0
0
0
0
0
0
0
0
0
0
0
0
0
0
0
0
0
0
0
0
0
0
0
0
0
0
0
0
0
0
0
0
0
0
0
0
0
0
0
0
0
0
0
0
0
0
0
0
0
0
0
0
0
0
0
0
0
0
0
0
0
0
0
0
0
0
0
0
0
0
0
0
0
0
0
0
0
0
0
0
0
0
0
0
0
0
0
0
0
0
0
0
0
0
0
0
0
0
0
0
0
0
0
0
0
0
0
0
0
0
0
0
0
0
0
0
0
0
0
0
0
0
0
0
0
0
0
0
0
0
0
0
0
0
0
0
0
0
0
0
0
0
0
0
0
0
0
0
0
0
0
0
0
0
0
0
0
0
0
0
0
0
0
0
0
0
0
0
0
0
0
0
0
0
0
0
0
0
0
0
0
0
0
0
0
0
0
0
0
0
0
0
0
0
0
0
0
0
0
0
0
0
0
0
0
0
0
0
0
0
0
0
0
0
0
0
0
0
0
0
0
0
0
0
0
0
0
0
0
0
0
0
0
0
0
0
0
0
0
0
0
0
0
0
0
0
0
0
0
0
0
0
0
0
0
0
0
0
0
0
0
0
0
0
0
0
0
0
0
0
0
0
0
0
0
0
0
0
0
0
0
0
0
0
0
0
0
0
0
0
0
0
0
0
0
0
0
0
0
0
0
0
0
0
0
0
0
0
0
0
0
0
0
0
0
0
0
0
0
0
0
0
0
0
0
0
0
0
0
0
0
0
0
0
0
0
0
0
0
0
0
0
0
0
0
0
0
0
0
0
0
0
0
0
0
0
0
0
0
0
0
0
0
0
0
0
0
0
0
0
0
0
0
0
0
0
0
0
0
0
0
0
0
0
0
0
0
0
0
0
0
0
0
0
0
0
0
0
0
0
0
0
0
0
0
0
0
0
0
0
0
0
0
0
0
0
0
0
0
0
0
0
0
0
0
0
0
0
0
0
0
0
0
0
0
0
0
0
0
0
0
0
0
0
0
0
0
0
0
0
0
0
0
0
0
0
0
0
0
0
0
0
0
0
0
0
0
0
0
0
0
0
0
0
0
0
0
0
0
0
0
0
0
0
0
0
0
0
0
0
0
0
0
0
0
0
0
0
0
0
0
0
0
0
0
0
0
0
0
0
0
0
0
0
0
0
0
0
0
0
0
0
0
0
0
0
0
0
0
0
0
0
0
0
0
0
0
0
0
0
0
0
0
0
0
0
0
0
0
0
0
0
0
0
0
0
0
0
0
0
0
0
0
0
0
0
0
0
0
0
0
0
0
0
0
0
0
0
0
0
0
0
0
0
0
0
0
0
0
0
0
0
0
0
0
0
0
0
0
0
0
0
0
0
0
0
0
0
0
0
0
0
0
0
0
0
0
0
0
0
0
0
0
0
0
0
0
0
0
0
0
0
0
0
0
0
0
0
0
0
0
0
0
0
0
0
0
0
0
0
0
0
0
0
0
0
0
0
0
0
0
0
0
0
0
0
0
0
0
0
0
0
0
0
0
0
0
0
0
0
0
0
0
0
0
0
0
0
0
0
0
0
0
0
0
0
0
0
0
0
0
0
0
0
0
0
0
0
0
0
0
0
0
0
0
0
0
0
0
0
0
0
0
0
0
0
0
0
0
0
0
0
0
0
0
0
0
SCALARS rhs double 1
LOOKUP_TABLE default
-5.82149
-5.69055
-5.66765
-5.66058
-5.64368
-5.62845
-5.61222
-5.60369
-5.59701
-5.61003
-5.56827
-5.56188
-5.546
-5.53303
-5.49108
-5.54473
-5.55906
-5.5669
-5.54643
-5.48078
-5.46039
-5.43895
-5.43635
-5.40635
-5.41296
-5.39817
-5.41715
-5.40671
-5.41957
-5.40337
-5.40765
-5.39132
-5.3924
-5.38305
-5.38235
-5.38565
-5.38377
-5.36794
-5.34951
-5.36919
-5.33592
-5.35065
-5.39242
-5.44041
-5.46564
-5.33568
-5.18975
-5.20336
-5.27775
-5.20414
-0.585152
-0.535231
-0.522435
-0.51941
-0.529361
-0.524835
-0.499448
-0.510614
-0.515078
-0.501763
-0.445507
-0.501171
-0.434079
-0.449544
-0.494699
-0.435208
-0.501499
-0.553114
-0.410776
-0.310605
-0.384195
-0.306998
-0.405008
-0.301904
-0.443488
-0.312302
-0.506913
-0.340478
-0.588117
-0.361435
-0.579179
-0.322683
-0.442924
-0.275297
-0.311718
-0.301993
-0.257164
-0.338763
-0.26317
-0.313392
-0.267671
-0.298545
-0.260607
-0.32055
-0.270878
-0.195627
3.1598
2.61274
3.30662
1.88605
-0.521836
-0.504804
-0.480328
-0.491314
-0.424295
-0.447893
-0.361193
-0.385841
-0.403445
-0.360587
-0.358788
-0.358525
-0.366191
-0.345973
-0.344237
-0.375829
-0.378651
-0.407437
0.328148
2.41247
2.70833
5.17403
4.57153
4.47398
5.18397
8.4954
8.51702
8.35974
16.5241
16.7096
15.6661
14.2653
12.3369
10.2579
10.6076
11.6897
11.6753
9.6912
5.73753
5.70779
5.49688
3.79999
2.50684
3.43474
2.19726
0.248674
0.907857
0.786108
0
0
-0.365915
-0.368103
-0.3698
-0.308991
-0.177687
-0.0853169
1.02657
1.0263
1.94126
3.47403
3.11892
1.91914
5.05031
4.70924
9.81384
11.9949
13.7071
16.5684
36.0661
28.0565
20.5298
16.247
13.5584
10.8402
10.7865
8.4957
6.05141
2.40646
0
0
0
0
0
0
0
0
0
0
0
0
0
0
0
0
0
0
0
0
0
0
5.63327
5.60584
5.71969
5.67828
4.75936
4.29628
3.76069
4.49375
4.93377
7.83712
7.96544
8.66736
9.26158
8.97228
43.8307
32.8547
19.5017
9.00999
0
0
0
0
0
0
0
0
0
0
0
0
0
0
0
0
0
0
0
0
0
0
0
0
0
0
0
0
0
0
0
0
6.36602
6.31525
5.9657
5.40632
4.81609
4.65051
4.54086
5.49725
6.68708
4.04255
4.68643
4.81997
12.4974
35.3186
0
0
0
0
0
0
0
0
0
0
0
0
0
0
0
0
0
0
0
0
0
0
0
0
0
0
0
0
0
0
0
0
0
0
0
0
1.47614
1.54411
2.09799
2.47435
3.77929
5.12603
6.33856
5.10183
2.09579
1.47098
2.53607
14.3387
26.3021
0
0
0
0
0
0
0
0
0
0
0
0
0
0
0
0
0
0
0
0
0
0
0
0
0
0
0
0
0
0
0
0
0
0
0
0
0
2.59543
2.54951
1.62039
1.22694
0.49828
0.777197
0.916648
3.70181
7.89906
8.9678
11.6117
27.2717
0
0
0
0
0
0
0
0
0
0
0
0
0
0
0
0
0
0
0
0
0
0
0
0
0
0
0
0
0
0
0
0
0
0
0
0
0
0
2.45787
2.59584
4.01582
4.53242
6.43299
7.47839
9.23983
7.89527
5.98596
8.49533
41.2731
0
0
0
0
0
0
0
0
0
0
0
0
0
0
0
0
0
0
0
0
0
0
0
0
0
0
0
0
0
0
0
0
0
0
0
0
0
0
0
9.36633
9.33066
8.04142
9.25902
7.69325
7.78758
9.09454
10.208
11.1703
21.7759
3.2041
0
0
0
0
0
0
0
0
0
0
0
0
0
0
0
0
0
0
0
0
0
0
0
0
0
0
0
0
0
0
0
0
0
0
0
0
0
0
0
7.92952
10.0992
10.1145
8.86149
11.2589
12.4355
10.8064
8.57914
8.60392
43.2779
0
0
0
0
0
0
0
0
0
0
0
0
0
0
0
0
0
0
0
0
0
0
0
0
0
0
0
0
0
0
0
0
0
0
0
0
0
0
0
0
13.2058
10.8439
11.0393
13.0106
10.7272
10.2862
9.48307
9.57063
8.67562
33.2233
0
0
0
0
0
0
0
0
0
0
0
0
0
0
0
0
0
0
0
0
0
0
0
0
0
0
0
0
0
0
0
0
0
0
0
0
0
0
0
0
8.71388
9.82855
9.83715
7.65861
8.9401
7.02241
6.34758
6.44313
5.90605
26.1906
0
0
0
0
0
0
0
0
0
0
0
0
0
0
0
0
0
0
0
0
0
0
0
0
0
0
0
0
0
0
0
0
0
0
0
0
0
0
0
0
7.061
5.55892
5.71513
6.83869
5.56628
5.6724
5.42452
5.43401
4.26976
17.1298
0
0
0
0
0
0
0
0
0
0
0
0
0
0
0
0
0
0
0
0
0
0
0
0
0
0
0
0
0
0
0
0
0
0
0
0
0
0
0
0
6.55202
6.55536
6.55982
5.31204
5.40986
6.30896
5.08555
5.09432
5.2091
10.3371
0
0
0
0
0
0
0
0
0
0
0
0
0
0
0
0
0
0
0
0
0
0
0
0
0
0
0
0
0
0
0
0
0
0
0
0
0
0
0
0
5.52783
5.53996
5.54196
5.54121
5.54439
4.52522
5.16545
5.22779
16.4546
0
0
0
0
0
0
0
0
0
0
0
0
0
0
0
0
0
0
0
0
0
0
0
0
0
0
0
0
0
0
0
0
0
0
0
0
0
0
0
0
0
3.60674
3.66202
3.98033
3.98143
3.98244
3.98396
3.23505
3.31189
11.5415
0
0
0
0
0
0
0
0
0
0
0
0
0
0
0
0
0
0
0
0
0
0
0
0
0
0
0
0
0
0
0
0
0
0
0
0
0
0
0
0
0
6.01719
6.36025
5.75447
5.75462
5.75506
5.75536
5.75588
5.76119
8.30564
0
0
0
0
0
0
0
0
0
0
0
0
0
0
0
0
0
0
0
0
0
0
0
0
0
0
0
0
0
0
0
0
0
0
0
0
0
0
0
0
0
3.29611
2.74112
2.74112
2.74112
2.74112
2.74112
2.74112
2.74112
2.74112
0
0
0
0
0
0
0
0
0
0
0
0
0
0
0
0
0
0
0
0
0
0
0
0
0
0
0
0
0
0
0
0
0
0
0
0
0
0
0
0
0
0
0
0
0
0
0
0
0
0
0
0
0
0
0
0
0
0
0
0
0
0
0
0
0
0
0
0
0
0
0
0
0
0
0
0
0
0
0
0
0
0
0
0
0
0
0
0
0
0
0
