# vtk DataFile Version 4.0
Nusif Fluid VTK output
ASCII
DATASET STRUCTURED_POINTS
DIMENSIONS 50 20 1
ORIGIN 0 0 0 
SPACING 0.2 0.2 1
POINT_DATA 1000 

VECTORS velocity double
0.0361345 -0.0366028  0
0.108029 -0.0367156  0
0.179707 -0.0367901  0
0.251602 -0.0369071  0
0.323591 -0.0369886  0
0.395665 -0.0370561  0
0.467937 -0.0372072  0
0.540797 -0.0376784  0
0.614752 -0.0383402  0
0.689816 -0.0387849  0
0.764722 -0.0381715  0
0.837549 -0.0368299  0
0.907222 -0.0349453  0
0.973575 -0.0335533  0
1.03786 -0.0329106  0
1.10189 -0.0332462  0
1.16726 -0.034327  0
1.23581 -0.0363917  0
1.30811 -0.0380759  0
1.37922 -0.0352235  0
1.44582 -0.0335715  0
1.50574 -0.0285225  0
1.55846 -0.0263918  0
1.6078 -0.0251239  0
1.65709 -0.0263606  0
1.70716 -0.0258947  0
1.75826 -0.0273827  0
1.80896 -0.0255049  0
1.85876 -0.0264827  0
1.90721 -0.024151  0
1.95401 -0.024829  0
2.00015 -0.0235035  0
2.04544 -0.0239708  0
2.09109 -0.023853  0
2.13612 -0.0233571  0
2.18045 -0.0231546  0
2.22288 -0.0214668  0
2.26276 -0.0206985  0
2.30035 -0.019021  0
2.33639 -0.0191654  0
2.3739 -0.0206006  0
2.41792 -0.0255612  0
2.47202 -0.0307213  0
2.52542 -0.0248947  0
2.5495 -0.00135573  0
2.54027 0.00838897  0
2.52156 0.00813881  0
2.49162 0.0196766  0
2.47086 0  0
2.50625 0  0
0.0359101 -0.110012  0
0.107447 -0.110214  0
0.178699 -0.110298  0
0.249934 -0.110555  0
0.321111 -0.110683  0
0.392227 -0.110734  0
0.463356 -0.111133  0
0.53515 -0.112649  0
0.608645 -0.115096  0
0.68428 -0.116971  0
0.759206 -0.114108  0
0.830358 -0.109251  0
0.89717 -0.103311  0
0.960379 -0.0990964  0
1.02162 -0.097284  0
1.08314 -0.0987477  0
1.14691 -0.10234  0
1.21524 -0.109632  0
1.28966 -0.115936  0
1.35949 -0.102665  0
1.42134 -0.0989474  0
1.48048 -0.0865824  0
1.53484 -0.0797644  0
1.58509 -0.0757385  0
1.63517 -0.0794746  0
1.6864 -0.0784669  0
1.73849 -0.0823575  0
1.79024 -0.0773554  0
1.84113 -0.0797072  0
1.89069 -0.0733029  0
1.9387 -0.0748574  0
1.98568 -0.0709733  0
2.03148 -0.071965  0
2.07689 -0.0712782  0
2.12131 -0.0697497  0
2.16482 -0.0689727  0
2.20657 -0.0642383  0
2.24639 -0.062064  0
2.28419 -0.0573447  0
2.32025 -0.0572982  0
2.35624 -0.0603762  0
2.39481 -0.0727533  0
2.44024 -0.087425  0
2.49154 -0.0772617  0
2.5283 -0.0131052  0
2.5296 0.0258722  0
2.53972 -0.00411891  0
2.55894 0.0393531  0
2.5149 0.0196766  0
2.50625 0  0
0.0354106 -0.18327  0
0.106032 -0.183287  0
0.176144 -0.183062  0
0.245927 -0.183302  0
0.315348 -0.183038  0
0.384465 -0.183032  0
0.453344 -0.183302  0
0.523091 -0.186466  0
0.595853 -0.191932  0
0.673355 -0.197677  0
0.746981 -0.186437  0
0.812944 -0.17842  0
0.875725 -0.168152  0
0.935133 -0.161273  0
0.993364 -0.158976  0
1.05235 -0.161969  0
1.11353 -0.168441  0
1.17966 -0.18238  0
1.25422 -0.196548  0
1.31733 -0.158291  0
1.38697 -0.176979  0
1.4411 -0.124024  0
1.50095 -0.158689  0
1.56076 -0.109102  0
1.61827 -0.155864  0
1.66366 -0.100893  0
1.72257 -0.173117  0
1.77103 -0.0889891  0
1.82269 -0.172826  0
1.8771 -0.0863361  0
1.91905 -0.153971  0
1.97726 -0.0992333  0
2.01318 -0.12762  0
2.06822 -0.118262  0
2.10429 -0.105437  0
2.15073 -0.12543  0
2.19019 -0.091206  0
2.22855 -0.11543  0
2.26969 -0.0850854  0
2.30372 -0.101859  0
2.3418 -0.0920355  0
2.37137 -0.111467  0
2.39686 -0.121823  0
2.40528 -0.104734  0
2.44275 -0.0641165  0
2.53 0.00570195  0
2.5793 -0.024039  0
2.56889 0.00789528  0
1.27947 0.0196766  0
0 0  0
0.0346364 -0.255468  0
0.103619 -0.255022  0
0.171972 -0.254271  0
0.239639 -0.254081  0
0.306724 -0.253225  0
0.373171 -0.252863  0
0.439295 -0.25293  0
0.505639 -0.257378  0
0.574652 -0.267203  0
0.649985 -0.279659  0
0.720816 -0.25227  0
0.783181 -0.243095  0
0.844145 -0.229439  0
0.909339 -0.226787  0
0.968526 -0.213063  0
1.02721 -0.227765  0
1.08647 -0.225286  0
1.13658 -0.243958  0
1.16226 -0.237374  0
1.27225 -0.209537  0
1.36208 -0.111603  0
1.43481 -0.0659638  0
1.49347 -0.105317  0
1.5582 -0.0584876  0
1.6081 -0.10275  0
1.67905 -0.0483207  0
1.71139 -0.118142  0
1.77249 -0.0371385  0
1.82274 -0.119601  0
1.86144 -0.0371843  0
1.93363 -0.103943  0
1.95294 -0.0517635  0
2.03225 -0.0796258  0
2.04764 -0.0708369  0
2.11306 -0.0590443  0
2.14012 -0.0796118  0
2.18464 -0.0484345  0
2.22688 -0.0740648  0
2.25935 -0.0467617  0
2.30922 -0.0637263  0
2.34235 -0.05226  0
2.38422 -0.064275  0
2.38496 -0.0651192  0
2.39253 -0.052367  0
1.20264 -0.052367  0
1.28989 -0.0117813  0
2.5793 -0.0117813  0
1.28941 -0.0117813  0
0 0  0
0 0  0
0.0334307 -0.324643  0
0.101588 -0.325195  0
0.167247 -0.320365  0
0.234551 -0.325226  0
0.298211 -0.315048  0
0.364673 -0.326191  0
0.42731 -0.310572  0
0.487386 -0.328379  0
0.54102 -0.321074  0
0.558041 -0.320337  0
0.650389 -0.301938  0
0.771065 -0.137096  0
0.838106 -0.129653  0
0.898148 -0.131057  0
0.968765 -0.118461  0
1.03361 -0.131297  0
1.09 -0.124859  0
1.13041 -0.134819  0
1.14613 -0.118687  0
0.581132 -0.118687  0
0 0  0
0 0  0
0 0  0
0 0  0
0 0  0
0 0  0
0 0  0
0 0  0
0 0  0
0 0  0
0 0  0
0 0  0
0 0  0
0 0  0
0 0  0
0 0  0
0 0  0
0 0  0
0 0  0
0 0  0
0 0  0
0 0  0
0 0  0
0 0  0
0 0  0
0 0  0
0 0  0
0 0  0
0 0  0
0 0  0
0.0343542 -0.179037  0
0.0981999 -0.179961  0
0.168085 -0.175649  0
0.23007 -0.180799  0
0.300095 -0.171168  0
0.360522 -0.182683  0
0.427123 -0.167017  0
0.489416 -0.182497  0
0.518692 -0.169047  0
0.549162 -0.160168  0
0.27902 -0.160168  0
0 0  0
0 0  0
0 0  0
0 0  0
0 0  0
0 0  0
0 0  0
0 0  0
0 0  0
0 0  0
0 0  0
0 0  0
0 0  0
0 0  0
0 0  0
0 0  0
0 0  0
0 0  0
0 0  0
0 0  0
0 0  0
0 0  0
0 0  0
0 0  0
0 0  0
0 0  0
0 0  0
0 0  0
0 0  0
0 0  0
0 0  0
0 0  0
0 0  0
0 0  0
0 0  0
0 0  0
0 0  0
0 0  0
0 0  0
0 0  0
0 0  0
0 0  0
0 0  0
0 0  0
0 0  0
0 0  0
0 0  0
0 0  0
0 0  0
0 0  0
0 0  0
0 0  0
0 0  0
0 0  0
0 0  0
0 0  0
0 0  0
0 0  0
0 0  0
0 0  0
0 0  0
0 0  0
0 0  0
0 0  0
0 0  0
0 0  0
0 0  0
0 0  0
0 0  0
0 0  0
0 0  0
0 0  0
0 0  0
0 0  0
0 0  0
0 0  0
0 0  0
0 0  0
0 0  0
0 0  0
0 0  0
0 0  0
0 0  0
0 0  0
0 0  0
0 0  0
0 0  0
0 0  0
0 0  0
0 0  0
0 0  0
0 0  0
0 0  0
0 0  0
0 0  0
0 0  0
0 0  0
0 0  0
0 0  0
0 0  0
0 0  0
0 0  0
0 0  0
0 0  0
0 0  0
0 0  0
0 0  0
0 0  0
0 0  0
0 0  0
0 0  0
0 0  0
0 0  0
0 0  0
0 0  0
0 0  0
0 0  0
0 0  0
0 0  0
0 0  0
0 0  0
0 0  0
0 0  0
0 0  0
0 0  0
0 0  0
0 0  0
0 0  0
0 0  0
0 0  0
0 0  0
0 0  0
0 0  0
0 0  0
0 0  0
0 0  0
0 0  0
0 0  0
0 0  0
0 0  0
0 0  0
0 0  0
0 0  0
0 0  0
0 0  0
0 0  0
0 0  0
0 0  0
0 0  0
0 0  0
0 0  0
0 0  0
0 0  0
0 0  0
0 0  0
0 0  0
0 0  0
0 0  0
0 0  0
0 0  0
0 0  0
0 0  0
0 0  0
0 0  0
0 0  0
0 0  0
0 0  0
0 0  0
0 0  0
0 0  0
0 0  0
0 0  0
0 0  0
0 0  0
0 0  0
0 0  0
0 0  0
0 0  0
0 0  0
0 0  0
0 0  0
0 0  0
0 0  0
0 0  0
0 0  0
0 0  0
0 0  0
0 0  0
0 0  0
0 0  0
0 0  0
0 0  0
0 0  0
0 0  0
0 0  0
0 0  0
0 0  0
0 0  0
0 0  0
0 0  0
0 0  0
0 0  0
0 0  0
0 0  0
0 0  0
0 0  0
0 0  0
0 0  0
0 0  0
0 0  0
0 0  0
0 0  0
0 0  0
0 0  0
0 0  0
0 0  0
0 0  0
0 0  0
0 0  0
0 0  0
0 0  0
0 0  0
0 0  0
0 0  0
0 0  0
0 0  0
0 0  0
0 0  0
0 0  0
0 0  0
0 0  0
0 0  0
0 0  0
0 0  0
0 0  0
0 0  0
0 0  0
0 0  0
0 0  0
0 0  0
0 0  0
0 0  0
0 0  0
0 0  0
0 0  0
0 0  0
0 0  0
0 0  0
0 0  0
0 0  0
0 0  0
0 0  0
0 0  0
0 0  0
0 0  0
0 0  0
0 0  0
0 0  0
0 0  0
0 0  0
0 0  0
0 0  0
0 0  0
0 0  0
0 0  0
0 0  0
0 0  0
0 0  0
0 0  0
0 0  0
0 0  0
0 0  0
0 0  0
0 0  0
0 0  0
0 0  0
0 0  0
0 0  0
0 0  0
0 0  0
0 0  0
0 0  0
0 0  0
0 0  0
0 0  0
0 0  0
0 0  0
0 0  0
0 0  0
0 0  0
0 0  0
0 0  0
0 0  0
0 0  0
0 0  0
0 0  0
0 0  0
0 0  0
0 0  0
0 0  0
0 0  0
0 0  0
0 0  0
0 0  0
0 0  0
0 0  0
0 0  0
0 0  0
0 0  0
0 0  0
0 0  0
0 0  0
0 0  0
0 0  0
0 0  0
0 0  0
0 0  0
0 0  0
0 0  0
0 0  0
0 0  0
0 0  0
0 0  0
0 0  0
0 0  0
0 0  0
0 0  0
0 0  0
0 0  0
0 0  0
0 0  0
0 0  0
0 0  0
0 0  0
0 0  0
0 0  0
0 0  0
0 0  0
0 0  0
0 0  0
0 0  0
0 0  0
0 0  0
0 0  0
0 0  0
0 0  0
0 0  0
0 0  0
0 0  0
0 0  0
0 0  0
0 0  0
0 0  0
0 0  0
0 0  0
0 0  0
0 0  0
0 0  0
0 0  0
0 0  0
0 0  0
0 0  0
0 0  0
0 0  0
0 0  0
0 0  0
0 0  0
0 0  0
0 0  0
0 0  0
0 0  0
0 0  0
0 0  0
0 0  0
0 0  0
0 0  0
0 0  0
0 0  0
0 0  0
0 0  0
0 0  0
0 0  0
0 0  0
0 0  0
0 0  0
0 0  0
0 0  0
0 0  0
0 0  0
0 0  0
0 0  0
0 0  0
0 0  0
0 0  0
0 0  0
0 0  0
0 0  0
0 0  0
0 0  0
0 0  0
0 0  0
0 0  0
0 0  0
0 0  0
0 0  0
0 0  0
0 0  0
0 0  0
0 0  0
0 0  0
0 0  0
0 0  0
0 0  0
0 0  0
0 0  0
0 0  0
0 0  0
0 0  0
0 0  0
0 0  0
0 0  0
0 0  0
0 0  0
0 0  0
0 0  0
0 0  0
0 0  0
0 0  0
0 0  0
0 0  0
0 0  0
0 0  0
0 0  0
0 0  0
0 0  0
0 0  0
0 0  0
0 0  0
0 0  0
0 0  0
0 0  0
0 0  0
0 0  0
0 0  0
0 0  0
0 0  0
0 0  0
0 0  0
0 0  0
0 0  0
0 0  0
0 0  0
0 0  0
0 0  0
0 0  0
0 0  0
0 0  0
0 0  0
0 0  0
0 0  0
0 0  0
0 0  0
0 0  0
0 0  0
0 0  0
0 0  0
0 0  0
0 0  0
0 0  0
0 0  0
0 0  0
0 0  0
0 0  0
0 0  0
0 0  0
0 0  0
0 0  0
0 0  0
0 0  0
0 0  0
0 0  0
0 0  0
0 0  0
0 0  0
0 0  0
0 0  0
0 0  0
0 0  0
0 0  0
0 0  0
0 0  0
0 0  0
0 0  0
0 0  0
0 0  0
0 0  0
0 0  0
0 0  0
0 0  0
0 0  0
0 0  0
0 0  0
0 0  0
0 0  0
0 0  0
0 0  0
0 0  0
0 0  0
0 0  0
0 0  0
0 0  0
0 0  0
0 0  0
0 0  0
0 0  0
0 0  0
0 0  0
0 0  0
0 0  0
0 0  0
0 0  0
0 0  0
0 0  0
0 0  0
0 0  0
0 0  0
0 0  0
0 0  0
0 0  0
0 0  0
0 0  0
0 0  0
0 0  0
0 0  0
0 0  0
0 0  0
0 0  0
0 0  0
0 0  0
0 0  0
0 0  0
0 0  0
0 0  0
0 0  0
0 0  0
0 0  0
0 0  0
0 0  0
0 0  0
0 0  0
0 0  0
0 0  0
0 0  0
0 0  0
0 0  0
0 0  0
0 0  0
0 0  0
0 0  0
0 0  0
0 0  0
0 0  0
0 0  0
0 0  0
0 0  0
0 0  0
0 0  0
0 0  0
0 0  0
0 0  0
0 0  0
0 0  0
0 0  0
0 0  0
0 0  0
0 0  0
0 0  0
0 0  0
0 0  0
0 0  0
0 0  0
0 0  0
0 0  0
0 0  0
0 0  0
0 0  0
0 0  0
0 0  0
0 0  0
0 0  0
0 0  0
0 0  0
0 0  0
0 0  0
0 0  0
0 0  0
0 0  0
0 0  0
0 0  0
0 0  0
0 0  0
0 0  0
0 0  0
0 0  0
0 0  0
0 0  0
0 0  0
0 0  0
0 0  0
0 0  0
0 0  0
0 0  0
0 0  0
0 0  0
0 0  0
0 0  0
0 0  0
0 0  0
0 0  0
0 0  0
0 0  0
0 0  0
0 0  0
0 0  0
0 0  0
0 0  0
0 0  0
0 0  0
0 0  0
0 0  0
0 0  0
0 0  0
0 0  0
0 0  0
0 0  0
0 0  0
0 0  0
0 0  0
0 0  0
0 0  0
0 0  0
0 0  0
0 0  0
0 0  0
0 0  0
0 0  0
0 0  0
0 0  0
0 0  0
0 0  0
0 0  0
0 0  0
0 0  0
0 0  0
0 0  0
0 0  0
0 0  0
0 0  0
0 0  0
0 0  0
0 0  0
0 0  0
0 0  0
0 0  0
0 0  0
0 0  0
0 0  0
0 0  0
0 0  0
0 0  0
0 0  0
0 0  0
0 0  0
0 0  0
0 0  0
0 0  0
0 0  0
0 0  0
0 0  0
0 0  0
0 0  0
0 0  0
0 0  0
0 0  0
0 0  0
0 0  0
0 0  0
0 0  0
0 0  0
0 0  0
0 0  0
0 0  0
0 0  0
0 0  0
0 0  0
0 0  0
0 0  0
0 0  0
0 0  0
0 0  0
0 0  0
0 0  0
0 0  0
0 0  0
0 0  0
0 0  0
0 0  0
0 0  0
0 0  0
0 0  0
0 0  0
0 0  0
0 0  0
0 0  0
0 0  0
0 0  0
0 0  0
0 0  0
0 0  0
0 0  0
0 0  0
0 0  0
0 0  0
0 0  0
0 0  0
0 0  0
0 0  0
0 0  0
0 0  0
0 0  0
0 0  0
0 0  0
0 0  0
0 0  0
0 0  0
0 0  0
0 0  0
0 0  0
0 0  0

SCALARS pressure double 1
LOOKUP_TABLE default
0.625744
0.629276
0.634015
0.635155
0.634124
0.630633
0.624136
0.613483
0.597556
0.576672
0.552509
0.530321
0.513082
0.498269
0.485798
0.472479
0.456224
0.433996
0.403271
0.368154
0.346067
0.32712
0.321698
0.317013
0.318176
0.314465
0.318768
0.314055
0.319128
0.314685
0.318642
0.316748
0.318629
0.319731
0.319366
0.321159
0.319336
0.321334
0.320515
0.320328
0.318776
0.313033
0.296537
0.265663
0.228704
0.227104
0.28578
0.385316
0.65856
0
0.439814
0.443578
0.447029
0.447434
0.446412
0.443401
0.436447
0.426132
0.409369
0.385498
0.355365
0.332667
0.316383
0.305333
0.29373
0.283896
0.269282
0.248379
0.211872
0.161195
0.150602
0.123537
0.132454
0.122304
0.134461
0.117028
0.139015
0.115183
0.140323
0.117974
0.1366
0.125142
0.131594
0.133315
0.129038
0.137539
0.129592
0.138074
0.132412
0.13701
0.134921
0.134332
0.121786
0.0865677
0.00935811
-0.0167972
0.0616493
-0.0099875
0
0
0.26327
0.266784
0.26825
0.269173
0.267737
0.265741
0.259146
0.251366
0.234267
0.204564
0.157329
0.134398
0.123478
0.121003
0.110379
0.107968
0.0972354
0.0842981
0.0408065
-0.0802522
-0.0175831
-0.109129
-0.0256877
-0.0854503
-0.00826065
-0.112967
0.016212
-0.126918
0.0205688
-0.112234
-0.00297643
-0.0738863
-0.0385709
-0.0350382
-0.0622959
-0.0163945
-0.0643226
-0.017927
-0.0526626
-0.0265009
-0.0370184
-0.0201349
-0.0181387
-0.0263733
0
0
0
0
0
0
0.0942872
0.0968971
0.0965969
0.0994583
0.0958803
0.0986064
0.0906057
0.092321
0.0768739
0.0451011
-0.0590508
-0.0695377
-0.0685938
-0.0464216
-0.072387
-0.051226
-0.0648871
-0.04344
-0.0453236
0
0
0
0
0
0
0
0
0
0
0
0
0
0
0
0
0
0
0
0
0
0
0
0
0
0
0
0
0
0
0
-0.0692375
-0.065396
-0.0719456
-0.0586606
-0.0764661
-0.050304
-0.0828619
-0.0421287
-0.0591428
-0.0350654
0
0
0
0
0
0
0
0
0
0
0
0
0
0
0
0
0
0
0
0
0
0
0
0
0
0
0
0
0
0
0
0
0
0
0
0
0
0
0
0
0
0
0
0
0
0
0
0
0
0
0
0
0
0
0
0
0
0
0
0
0
0
0
0
0
0
0
0
0
0
0
0
0
0
0
0
0
0
0
0
0
0
0
0
0
0
0
0
0
0
0
0
0
0
0
0
0
0
0
0
0
0
0
0
0
0
0
0
0
0
0
0
0
0
0
0
0
0
0
0
0
0
0
0
0
0
0
0
0
0
0
0
0
0
0
0
0
0
0
0
0
0
0
0
0
0
0
0
0
0
0
0
0
0
0
0
0
0
0
0
0
0
0
0
0
0
0
0
0
0
0
0
0
0
0
0
0
0
0
0
0
0
0
0
0
0
0
0
0
0
0
0
0
0
0
0
0
0
0
0
0
0
0
0
0
0
0
0
0
0
0
0
0
0
0
0
0
0
0
0
0
0
0
0
0
0
0
0
0
0
0
0
0
0
0
0
0
0
0
0
0
0
0
0
0
0
0
0
0
0
0
0
0
0
0
0
0
0
0
0
0
0
0
0
0
0
0
0
0
0
0
0
0
0
0
0
0
0
0
0
0
0
0
0
0
0
0
0
0
0
0
0
0
0
0
0
0
0
0
0
0
0
0
0
0
0
0
0
0
0
0
0
0
0
0
0
0
0
0
0
0
0
0
0
0
0
0
0
0
0
0
0
0
0
0
0
0
0
0
0
0
0
0
0
0
0
0
0
0
0
0
0
0
0
0
0
0
0
0
0
0
0
0
0
0
0
0
0
0
0
0
0
0
0
0
0
0
0
0
0
0
0
0
0
0
0
0
0
0
0
0
0
0
0
0
0
0
0
0
0
0
0
0
0
0
0
0
0
0
0
0
0
0
0
0
0
0
0
0
0
0
0
0
0
0
0
0
0
0
0
0
0
0
0
0
0
0
0
0
0
0
0
0
0
0
0
0
0
0
0
0
0
0
0
0
0
0
0
0
0
0
0
0
0
0
0
0
0
0
0
0
0
0
0
0
0
0
0
0
0
0
0
0
0
0
0
0
0
0
0
0
0
0
0
0
0
0
0
0
0
0
0
0
0
0
0
0
0
0
0
0
0
0
0
0
0
0
0
0
0
0
0
0
0
0
0
0
0
0
0
0
0
0
0
0
0
0
0
0
0
0
0
0
0
0
0
0
0
0
0
0
0
0
0
0
0
0
0
0
0
0
0
0
0
0
0
0
0
0
0
0
0
0
0
0
0
0
0
0
0
0
0
0
0
0
0
0
0
0
0
0
0
0
0
0
0
0
0
0
0
0
0
0
0
0
0
0
0
0
0
0
0
0
0
0
0
0
0
0
0
0
0
0
0
0
0
0
0
0
0
0
0
0
0
0
0
0
0
0
0
0
0
0
0
0
0
0
0
0
0
0
0
0
0
0
0
0
0
0
0
0
0
0
0
0
0
0
0
0
0
0
0
0
0
0
0
0
0
0
0
0
0
0
0
0
0
0
0
0
0
0
0
0
0
0
0
0
0
0
0
0
0
0
0
0
0
0
0
0
0
0
0
0
0
0
0
0
0
0
0
0
0
0
0
0
0
0
0
0
0
0
0
0
0
0
0
0
0
0
0
0
0
0
0
0
0
0
0
0
0
0
0
0
0
0
0
0
0
0
0
0
0
0
0
0
0
0
0
0
0
0
0
0
0
0
0
0
0
0
0
0
0
0
0
0
0
0
0
0
0
SCALARS rhs double 1
LOOKUP_TABLE default
-4.40362
-4.5779
-4.70912
-4.7064
-4.72508
-4.73114
-4.77208
-4.79913
-4.81423
-4.8441
-4.86245
-4.83104
-4.82212
-4.78917
-4.79639
-4.79943
-4.81529
-4.8552
-4.88853
-4.85417
-4.80467
-4.75292
-4.71321
-4.71806
-4.71883
-4.73049
-4.72311
-4.72398
-4.70936
-4.70706
-4.69634
-4.69648
-4.69386
-4.69666
-4.70196
-4.68099
-4.65126
-4.67139
-4.6539
-4.64069
-4.69369
-4.73255
-4.73109
-4.63371
-4.59162
-4.60006
-4.57049
-5.5366
0.273396
0
0.378167
0.198984
0.129415
0.191518
0.164888
0.145939
0.16454
0.157081
0.139268
0.110997
0.138951
0.165235
0.202113
0.221237
0.237369
0.21696
0.199607
0.159154
0.136551
0.162076
0.252686
0.185732
0.293492
0.23221
0.289084
0.164075
0.286847
0.135281
0.295584
0.182476
0.311689
0.261345
0.303379
0.302177
0.292673
0.332056
0.29698
0.347248
0.317086
0.337421
0.334075
0.297197
0.315299
0.599828
-0.738332
0.295799
0.289602
0.128125
0
0
0.289838
0.125108
0.151741
0.146933
0.152049
0.146906
0.175575
0.163682
0.124867
0.0923662
0.14105
0.168354
0.214809
0.23326
0.206335
0.217311
0.184374
0.154747
0.17753
-0.894143
-0.598284
1.86741
1.26491
1.16737
1.87736
5.18879
5.21041
5.05313
13.2174
13.4029
12.3595
10.9587
9.03029
6.95133
7.301
8.38313
8.36871
6.38458
2.43091
2.40118
2.19027
0.49337
-0.799772
0.128125
-0.474891
-0.644364
0.273396
0
0
0
0.197877
0.115665
0.141415
0.124126
0.140892
0.177999
0.123837
0.173167
0.129625
0.167418
-0.187691
-1.38748
1.7437
1.40263
6.50722
8.68829
10.4005
13.2617
34.0693
28.0565
20.5298
16.247
13.5584
10.8402
10.7865
8.4957
6.05141
2.40646
0
0
0
0
0
0
0
0
0
0
0
0
0
0
0
0
0
0
0
0
0
0
2.32665
2.29922
2.41307
2.37166
1.76964
1.30656
1.34711
2.08017
3.5132
7.83712
7.96544
8.66736
9.26158
8.97228
43.8307
32.8547
19.5017
9.00999
0
0
0
0
0
0
0
0
0
0
0
0
0
0
0
0
0
0
0
0
0
0
0
0
0
0
0
0
0
0
0
0
6.36602
6.31525
5.9657
5.40632
4.81609
4.65051
4.54086
5.49725
6.68708
4.04255
4.68643
4.81997
12.4974
35.3186
0
0
0
0
0
0
0
0
0
0
0
0
0
0
0
0
0
0
0
0
0
0
0
0
0
0
0
0
0
0
0
0
0
0
0
0
1.47614
1.54411
2.09799
2.47435
3.77929
5.12603
6.33856
5.10183
2.09579
1.47098
2.53607
14.3387
26.3021
0
0
0
0
0
0
0
0
0
0
0
0
0
0
0
0
0
0
0
0
0
0
0
0
0
0
0
0
0
0
0
0
0
0
0
0
0
2.59543
2.54951
1.62039
1.22694
0.49828
0.777197
0.916648
3.70181
7.89906
8.9678
11.6117
27.2717
0
0
0
0
0
0
0
0
0
0
0
0
0
0
0
0
0
0
0
0
0
0
0
0
0
0
0
0
0
0
0
0
0
0
0
0
0
0
2.45787
2.59584
4.01582
4.53242
6.43299
7.47839
9.23983
7.89527
5.98596
8.49533
41.2731
0
0
0
0
0
0
0
0
0
0
0
0
0
0
0
0
0
0
0
0
0
0
0
0
0
0
0
0
0
0
0
0
0
0
0
0
0
0
0
9.36633
9.33066
8.04142
9.25902
7.69325
7.78758
9.09454
10.208
11.1703
21.7759
3.2041
0
0
0
0
0
0
0
0
0
0
0
0
0
0
0
0
0
0
0
0
0
0
0
0
0
0
0
0
0
0
0
0
0
0
0
0
0
0
0
7.92952
10.0992
10.1145
8.86149
11.2589
12.4355
10.8064
8.57914
8.60392
43.2779
0
0
0
0
0
0
0
0
0
0
0
0
0
0
0
0
0
0
0
0
0
0
0
0
0
0
0
0
0
0
0
0
0
0
0
0
0
0
0
0
13.2058
10.8439
11.0393
13.0106
10.7272
10.2862
9.48307
9.57063
8.67562
33.2233
0
0
0
0
0
0
0
0
0
0
0
0
0
0
0
0
0
0
0
0
0
0
0
0
0
0
0
0
0
0
0
0
0
0
0
0
0
0
0
0
8.71388
9.82855
9.83715
7.65861
8.9401
7.02241
6.34758
6.44313
5.90605
26.1906
0
0
0
0
0
0
0
0
0
0
0
0
0
0
0
0
0
0
0
0
0
0
0
0
0
0
0
0
0
0
0
0
0
0
0
0
0
0
0
0
7.061
5.55892
5.71513
6.83869
5.56628
5.6724
5.42452
5.43401
4.26976
17.1298
0
0
0
0
0
0
0
0
0
0
0
0
0
0
0
0
0
0
0
0
0
0
0
0
0
0
0
0
0
0
0
0
0
0
0
0
0
0
0
0
6.55202
6.55536
6.55982
5.31204
5.40986
6.30896
5.08555
5.09432
5.2091
10.3371
0
0
0
0
0
0
0
0
0
0
0
0
0
0
0
0
0
0
0
0
0
0
0
0
0
0
0
0
0
0
0
0
0
0
0
0
0
0
0
0
5.52783
5.53996
5.54196
5.54121
5.54439
4.52522
5.16545
5.22779
16.4546
0
0
0
0
0
0
0
0
0
0
0
0
0
0
0
0
0
0
0
0
0
0
0
0
0
0
0
0
0
0
0
0
0
0
0
0
0
0
0
0
0
3.60674
3.66202
3.98033
3.98143
3.98244
3.98396
3.23505
3.31189
11.5415
0
0
0
0
0
0
0
0
0
0
0
0
0
0
0
0
0
0
0
0
0
0
0
0
0
0
0
0
0
0
0
0
0
0
0
0
0
0
0
0
0
6.01719
6.36025
5.75447
5.75462
5.75506
5.75536
5.75588
5.76119
8.30564
0
0
0
0
0
0
0
0
0
0
0
0
0
0
0
0
0
0
0
0
0
0
0
0
0
0
0
0
0
0
0
0
0
0
0
0
0
0
0
0
0
3.29611
2.74112
2.74112
2.74112
2.74112
2.74112
2.74112
2.74112
2.74112
0
0
0
0
0
0
0
0
0
0
0
0
0
0
0
0
0
0
0
0
0
0
0
0
0
0
0
0
0
0
0
0
0
0
0
0
0
0
0
0
0
0
0
0
0
0
0
0
0
0
0
0
0
0
0
0
0
0
0
0
0
0
0
0
0
0
0
0
0
0
0
0
0
0
0
0
0
0
0
0
0
0
0
0
0
0
0
0
0
0
0
