# vtk DataFile Version 4.0
Nusif Fluid VTK output
ASCII
DATASET STRUCTURED_POINTS
DIMENSIONS 50 20 1
ORIGIN 0 0 0 
SPACING 0.2 0.2 1
POINT_DATA 1000 

VECTORS velocity double
0.0351124 -0.0387785  0
0.105233 -0.0389319  0
0.175444 -0.0389923  0
0.246027 -0.0392117  0
0.316999 -0.039506  0
0.388475 -0.0398168  0
0.460539 -0.0400775  0
0.532886 -0.0400888  0
0.60473 -0.0395653  0
0.675314 -0.0387291  0
0.744374 -0.0381777  0
0.812097 -0.0373366  0
0.878042 -0.0364812  0
0.942062 -0.0355069  0
1.00505 -0.0353036  0
1.06833 -0.0359156  0
1.13368 -0.0373674  0
1.2021 -0.0389784  0
1.27159 -0.0384665  0
1.33767 -0.0355479  0
1.3984 -0.0331191  0
1.4558 -0.0322272  0
1.50952 -0.0294218  0
1.55976 -0.0287746  0
1.60771 -0.027116  0
1.65576 -0.0288759  0
1.70451 -0.0278188  0
1.75427 -0.029881  0
1.80373 -0.0275297  0
1.85261 -0.0292848  0
1.90035 -0.0263999  0
1.94651 -0.0276959  0
1.99201 -0.0257507  0
2.03628 -0.0264635  0
2.08082 -0.0260077  0
2.12448 -0.0256041  0
2.16786 -0.0257242  0
2.20973 -0.0240753  0
2.24978 -0.0239256  0
2.28792 -0.0221831  0
2.32477 -0.0225932  0
2.36291 -0.0234891  0
2.40665 -0.028207  0
2.46112 -0.0342042  0
2.51863 -0.0312463  0
2.55209 -0.0101604  0
2.55537 -0.00106538  0
2.5491 -0.000605143  0
2.54622 -0.00445671  0
2.5467 -0.00487326  0
0.034743 -0.116353  0
0.10437 -0.116478  0
0.173986 -0.116762  0
0.243628 -0.117344  0
0.313734 -0.118198  0
0.384451 -0.119127  0
0.456047 -0.120186  0
0.528675 -0.12074  0
0.600852 -0.118609  0
0.670175 -0.115309  0
0.737211 -0.113539  0
0.802838 -0.111132  0
0.866709 -0.108348  0
0.928696 -0.1055  0
0.989533 -0.104996  0
1.05102 -0.106889  0
1.11549 -0.112077  0
1.18534 -0.118444  0
1.25484 -0.113854  0
1.3187 -0.106002  0
1.37738 -0.0979543  0
1.43284 -0.0961279  0
1.48694 -0.0892411  0
1.53927 -0.0874012  0
1.58962 -0.0827022  0
1.63943 -0.0870091  0
1.68923 -0.084149  0
1.73948 -0.0894247  0
1.78952 -0.0833854  0
1.83901 -0.0876884  0
1.88747 -0.0800736  0
1.93455 -0.0831595  0
1.98068 -0.0777972  0
2.02552 -0.0794109  0
2.06991 -0.0778784  0
2.11326 -0.0766355  0
2.15597 -0.0766675  0
2.1972 -0.0721149  0
2.23699 -0.0716269  0
2.27514 -0.0666767  0
2.31188 -0.0675633  0
2.34864 -0.0693012  0
2.38766 -0.0810495  0
2.43333 -0.0973873  0
2.48541 -0.0935386  0
2.51974 -0.0275761  0
2.53157 -0.00670502  0
2.5363 -0.00137194  0
2.54481 -0.0172584  0
2.55315 -0.00974653  0
0.0342553 -0.193317  0
0.102617 -0.193158  0
0.170742 -0.193608  0
0.238708 -0.194253  0
0.307006 -0.195613  0
0.375916 -0.19719  0
0.446549 -0.200294  0
0.520781 -0.203423  0
0.592606 -0.195747  0
0.657953 -0.188857  0
0.720761 -0.185789  0
0.782977 -0.182701  0
0.844534 -0.178153  0
0.904663 -0.173677  0
0.963845 -0.172824  0
1.02344 -0.176053  0
1.08595 -0.185781  0
1.15611 -0.200656  0
1.21671 -0.173645  0
1.28116 -0.182484  0
1.33958 -0.146514  0
1.40292 -0.174298  0
1.45308 -0.123305  0
1.51386 -0.174367  0
1.56488 -0.105078  0
1.62324 -0.180725  0
1.66861 -0.0935708  0
1.72584 -0.195406  0
1.77056 -0.0801109  0
1.82038 -0.198231  0
1.87323 -0.0787737  0
1.91205 -0.178323  0
1.97157 -0.096214  0
2.00284 -0.145044  0
2.06138 -0.123134  0
2.09243 -0.113713  0
2.14215 -0.139965  0
2.17841 -0.0942608  0
2.2178 -0.136604  0
2.25873 -0.0887224  0
2.29232 -0.123788  0
2.33233 -0.0977931  0
2.36172 -0.128907  0
2.39098 -0.132405  0
2.39702 -0.124585  0
2.45023 -0.079708  0
2.51492 -0.00563965  0
2.54346 -0.000766797  0
2.54892 -0.0128017  0
2.53653 -0.00487326  0
0.033462 -0.268815  0
0.100024 -0.268485  0
0.166143 -0.268592  0
0.232046 -0.269105  0
0.297682 -0.270641  0
0.363657 -0.272941  0
0.431413 -0.278886  0
0.504944 -0.288533  0
0.569839 -0.259301  0
0.630924 -0.259746  0
0.697373 -0.252113  0
0.756475 -0.245655  0
0.817939 -0.246192  0
0.87873 -0.23454  0
0.939964 -0.240326  0
0.99836 -0.234493  0
1.04804 -0.247488  0
1.07338 -0.242379  0
1.17026 -0.219447  0
1.26458 -0.112031  0
1.33794 -0.0816788  0
1.38472 -0.110397  0
1.45842 -0.0634856  0
1.49987 -0.11574  0
1.57173 -0.0494915  0
1.61099 -0.122592  0
1.68188 -0.0372406  0
1.71286 -0.135862  0
1.77452 -0.0242552  0
1.82123 -0.139827  0
1.85626 -0.0251  0
1.93112 -0.12286  0
1.94081 -0.0441675  0
2.02994 -0.092097  0
2.03197 -0.0712631  0
2.11018 -0.0626812  0
2.12569 -0.0890216  0
2.1783 -0.0462211  0
2.21581 -0.0889027  0
2.24865 -0.0442289  0
2.30007 -0.0788174  0
2.32958 -0.0519809  0
2.37896 -0.0760644  0
2.37721 -0.0692217  0
2.39009 -0.0622923  0
1.19851 -0.0622923  0
0 0  0
0 0  0
0 0  0
0 0  0
0.0328419 -0.338988  0
0.0968987 -0.336963  0
0.16231 -0.339703  0
0.225242 -0.334704  0
0.289832 -0.343292  0
0.350422 -0.334859  0
0.399418 -0.34166  0
0.423677 -0.331523  0
0.514576 -0.308359  0
0.630012 -0.147469  0
0.686654 -0.141685  0
0.754695 -0.13675  0
0.812045 -0.139905  0
0.876019 -0.130856  0
0.938522 -0.137194  0
0.997583 -0.129414  0
1.03982 -0.136417  0
1.05816 -0.12119  0
0.536692 -0.12119  0
0 0  0
0 0  0
0 0  0
0 0  0
0 0  0
0 0  0
0 0  0
0 0  0
0 0  0
0 0  0
0 0  0
0 0  0
0 0  0
0 0  0
0 0  0
0 0  0
0 0  0
0 0  0
0 0  0
0 0  0
0 0  0
0 0  0
0 0  0
0 0  0
0 0  0
0 0  0
0 0  0
0 0  0
0 0  0
0 0  0
0 0  0
0.0310157 -0.185915  0
0.0979334 -0.184089  0
0.159941 -0.18695  0
0.227865 -0.18172  0
0.28791 -0.189573  0
0.343809 -0.179798  0
0.385382 -0.182959  0
0.406479 -0.165761  0
0.211839 -0.165761  0
0 0  0
0 0  0
0 0  0
0 0  0
0 0  0
0 0  0
0 0  0
0 0  0
0 0  0
0 0  0
0 0  0
0 0  0
0 0  0
0 0  0
0 0  0
0 0  0
0 0  0
0 0  0
0 0  0
0 0  0
0 0  0
0 0  0
0 0  0
0 0  0
0 0  0
0 0  0
0 0  0
0 0  0
0 0  0
0 0  0
0 0  0
0 0  0
0 0  0
0 0  0
0 0  0
0 0  0
0 0  0
0 0  0
0 0  0
0 0  0
0 0  0
0 0  0
0 0  0
0 0  0
0 0  0
0 0  0
0 0  0
0 0  0
0 0  0
0 0  0
0 0  0
0 0  0
0 0  0
0 0  0
0 0  0
0 0  0
0 0  0
0 0  0
0 0  0
0 0  0
0 0  0
0 0  0
0 0  0
0 0  0
0 0  0
0 0  0
0 0  0
0 0  0
0 0  0
0 0  0
0 0  0
0 0  0
0 0  0
0 0  0
0 0  0
0 0  0
0 0  0
0 0  0
0 0  0
0 0  0
0 0  0
0 0  0
0 0  0
0 0  0
0 0  0
0 0  0
0 0  0
0 0  0
0 0  0
0 0  0
0 0  0
0 0  0
0 0  0
0 0  0
0 0  0
0 0  0
0 0  0
0 0  0
0 0  0
0 0  0
0 0  0
0 0  0
0 0  0
0 0  0
0 0  0
0 0  0
0 0  0
0 0  0
0 0  0
0 0  0
0 0  0
0 0  0
0 0  0
0 0  0
0 0  0
0 0  0
0 0  0
0 0  0
0 0  0
0 0  0
0 0  0
0 0  0
0 0  0
0 0  0
0 0  0
0 0  0
0 0  0
0 0  0
0 0  0
0 0  0
0 0  0
0 0  0
0 0  0
0 0  0
0 0  0
0 0  0
0 0  0
0 0  0
0 0  0
0 0  0
0 0  0
0 0  0
0 0  0
0 0  0
0 0  0
0 0  0
0 0  0
0 0  0
0 0  0
0 0  0
0 0  0
0 0  0
0 0  0
0 0  0
0 0  0
0 0  0
0 0  0
0 0  0
0 0  0
0 0  0
0 0  0
0 0  0
0 0  0
0 0  0
0 0  0
0 0  0
0 0  0
0 0  0
0 0  0
0 0  0
0 0  0
0 0  0
0 0  0
0 0  0
0 0  0
0 0  0
0 0  0
0 0  0
0 0  0
0 0  0
0 0  0
0 0  0
0 0  0
0 0  0
0 0  0
0 0  0
0 0  0
0 0  0
0 0  0
0 0  0
0 0  0
0 0  0
0 0  0
0 0  0
0 0  0
0 0  0
0 0  0
0 0  0
0 0  0
0 0  0
0 0  0
0 0  0
0 0  0
0 0  0
0 0  0
0 0  0
0 0  0
0 0  0
0 0  0
0 0  0
0 0  0
0 0  0
0 0  0
0 0  0
0 0  0
0 0  0
0 0  0
0 0  0
0 0  0
0 0  0
0 0  0
0 0  0
0 0  0
0 0  0
0 0  0
0 0  0
0 0  0
0 0  0
0 0  0
0 0  0
0 0  0
0 0  0
0 0  0
0 0  0
0 0  0
0 0  0
0 0  0
0 0  0
0 0  0
0 0  0
0 0  0
0 0  0
0 0  0
0 0  0
0 0  0
0 0  0
0 0  0
0 0  0
0 0  0
0 0  0
0 0  0
0 0  0
0 0  0
0 0  0
0 0  0
0 0  0
0 0  0
0 0  0
0 0  0
0 0  0
0 0  0
0 0  0
0 0  0
0 0  0
0 0  0
0 0  0
0 0  0
0 0  0
0 0  0
0 0  0
0 0  0
0 0  0
0 0  0
0 0  0
0 0  0
0 0  0
0 0  0
0 0  0
0 0  0
0 0  0
0 0  0
0 0  0
0 0  0
0 0  0
0 0  0
0 0  0
0 0  0
0 0  0
0 0  0
0 0  0
0 0  0
0 0  0
0 0  0
0 0  0
0 0  0
0 0  0
0 0  0
0 0  0
0 0  0
0 0  0
0 0  0
0 0  0
0 0  0
0 0  0
0 0  0
0 0  0
0 0  0
0 0  0
0 0  0
0 0  0
0 0  0
0 0  0
0 0  0
0 0  0
0 0  0
0 0  0
0 0  0
0 0  0
0 0  0
0 0  0
0 0  0
0 0  0
0 0  0
0 0  0
0 0  0
0 0  0
0 0  0
0 0  0
0 0  0
0 0  0
0 0  0
0 0  0
0 0  0
0 0  0
0 0  0
0 0  0
0 0  0
0 0  0
0 0  0
0 0  0
0 0  0
0 0  0
0 0  0
0 0  0
0 0  0
0 0  0
0 0  0
0 0  0
0 0  0
0 0  0
0 0  0
0 0  0
0 0  0
0 0  0
0 0  0
0 0  0
0 0  0
0 0  0
0 0  0
0 0  0
0 0  0
0 0  0
0 0  0
0 0  0
0 0  0
0 0  0
0 0  0
0 0  0
0 0  0
0 0  0
0 0  0
0 0  0
0 0  0
0 0  0
0 0  0
0 0  0
0 0  0
0 0  0
0 0  0
0 0  0
0 0  0
0 0  0
0 0  0
0 0  0
0 0  0
0 0  0
0 0  0
0 0  0
0 0  0
0 0  0
0 0  0
0 0  0
0 0  0
0 0  0
0 0  0
0 0  0
0 0  0
0 0  0
0 0  0
0 0  0
0 0  0
0 0  0
0 0  0
0 0  0
0 0  0
0 0  0
0 0  0
0 0  0
0 0  0
0 0  0
0 0  0
0 0  0
0 0  0
0 0  0
0 0  0
0 0  0
0 0  0
0 0  0
0 0  0
0 0  0
0 0  0
0 0  0
0 0  0
0 0  0
0 0  0
0 0  0
0 0  0
0 0  0
0 0  0
0 0  0
0 0  0
0 0  0
0 0  0
0 0  0
0 0  0
0 0  0
0 0  0
0 0  0
0 0  0
0 0  0
0 0  0
0 0  0
0 0  0
0 0  0
0 0  0
0 0  0
0 0  0
0 0  0
0 0  0
0 0  0
0 0  0
0 0  0
0 0  0
0 0  0
0 0  0
0 0  0
0 0  0
0 0  0
0 0  0
0 0  0
0 0  0
0 0  0
0 0  0
0 0  0
0 0  0
0 0  0
0 0  0
0 0  0
0 0  0
0 0  0
0 0  0
0 0  0
0 0  0
0 0  0
0 0  0
0 0  0
0 0  0
0 0  0
0 0  0
0 0  0
0 0  0
0 0  0
0 0  0
0 0  0
0 0  0
0 0  0
0 0  0
0 0  0
0 0  0
0 0  0
0 0  0
0 0  0
0 0  0
0 0  0
0 0  0
0 0  0
0 0  0
0 0  0
0 0  0
0 0  0
0 0  0
0 0  0
0 0  0
0 0  0
0 0  0
0 0  0
0 0  0
0 0  0
0 0  0
0 0  0
0 0  0
0 0  0
0 0  0
0 0  0
0 0  0
0 0  0
0 0  0
0 0  0
0 0  0
0 0  0
0 0  0
0 0  0
0 0  0
0 0  0
0 0  0
0 0  0
0 0  0
0 0  0
0 0  0
0 0  0
0 0  0
0 0  0
0 0  0
0 0  0
0 0  0
0 0  0
0 0  0
0 0  0
0 0  0
0 0  0
0 0  0
0 0  0
0 0  0
0 0  0
0 0  0
0 0  0
0 0  0
0 0  0
0 0  0
0 0  0
0 0  0
0 0  0
0 0  0
0 0  0
0 0  0
0 0  0
0 0  0
0 0  0
0 0  0
0 0  0
0 0  0
0 0  0
0 0  0
0 0  0
0 0  0
0 0  0
0 0  0
0 0  0
0 0  0
0 0  0
0 0  0
0 0  0
0 0  0
0 0  0
0 0  0
0 0  0
0 0  0
0 0  0
0 0  0
0 0  0
0 0  0
0 0  0
0 0  0
0 0  0
0 0  0
0 0  0
0 0  0
0 0  0
0 0  0
0 0  0
0 0  0
0 0  0
0 0  0
0 0  0
0 0  0
0 0  0
0 0  0
0 0  0
0 0  0
0 0  0
0 0  0
0 0  0
0 0  0
0 0  0
0 0  0
0 0  0
0 0  0
0 0  0
0 0  0
0 0  0
0 0  0
0 0  0
0 0  0
0 0  0
0 0  0
0 0  0
0 0  0
0 0  0
0 0  0
0 0  0
0 0  0
0 0  0
0 0  0
0 0  0
0 0  0
0 0  0
0 0  0
0 0  0
0 0  0
0 0  0
0 0  0
0 0  0
0 0  0
0 0  0
0 0  0
0 0  0
0 0  0
0 0  0
0 0  0
0 0  0
0 0  0
0 0  0
0 0  0
0 0  0
0 0  0
0 0  0
0 0  0
0 0  0
0 0  0
0 0  0
0 0  0
0 0  0
0 0  0
0 0  0
0 0  0
0 0  0
0 0  0
0 0  0
0 0  0
0 0  0
0 0  0
0 0  0
0 0  0
0 0  0
0 0  0
0 0  0
0 0  0
0 0  0
0 0  0
0 0  0
0 0  0
0 0  0
0 0  0
0 0  0
0 0  0
0 0  0
0 0  0
0 0  0
0 0  0
0 0  0
0 0  0
0 0  0
0 0  0
0 0  0
0 0  0
0 0  0
0 0  0
0 0  0
0 0  0
0 0  0
0 0  0
0 0  0
0 0  0
0 0  0
0 0  0
0 0  0
0 0  0
0 0  0
0 0  0
0 0  0
0 0  0
0 0  0
0 0  0
0 0  0
0 0  0
0 0  0
0 0  0
0 0  0
0 0  0
0 0  0
0 0  0
0 0  0
0 0  0
0 0  0
0 0  0
0 0  0
0 0  0
0 0  0
0 0  0
0 0  0
0 0  0
0 0  0
0 0  0
0 0  0
0 0  0
0 0  0
0 0  0
0 0  0
0 0  0
0 0  0
0 0  0
0 0  0
0 0  0
0 0  0
0 0  0
0 0  0
0 0  0
0 0  0
0 0  0
0 0  0
0 0  0

SCALARS pressure double 1
LOOKUP_TABLE default
0.762343
0.756962
0.749406
0.738876
0.724664
0.706089
0.682598
0.653959
0.623664
0.597783
0.576914
0.560711
0.54574
0.532521
0.517344
0.498271
0.472827
0.438195
0.398488
0.372572
0.35571
0.348605
0.340432
0.341357
0.337336
0.342075
0.338392
0.345133
0.339018
0.345921
0.339334
0.344483
0.34059
0.342986
0.34323
0.342603
0.344897
0.342384
0.344885
0.341684
0.342041
0.33795
0.330653
0.310396
0.271284
0.216928
0.194417
0.183264
0.192925
0.198144
0.553887
0.550494
0.54351
0.534267
0.521913
0.504446
0.480792
0.448818
0.412346
0.385967
0.368286
0.35342
0.342679
0.331004
0.319475
0.302555
0.278955
0.238929
0.17994
0.161158
0.145349
0.149871
0.132552
0.148607
0.13035
0.152842
0.12921
0.160167
0.127447
0.161877
0.12982
0.156368
0.137191
0.148105
0.14701
0.142459
0.153528
0.141435
0.154161
0.143251
0.151255
0.144178
0.145356
0.129281
0.0909104
-0.00304141
-0.00554802
-0.0264584
0
0.00893881
0.345477
0.342639
0.337988
0.330963
0.321973
0.306525
0.2842
0.245365
0.185843
0.165287
0.15391
0.14303
0.138471
0.130681
0.12689
0.113802
0.099751
0.0562935
-0.0790639
-0.0462018
-0.0821173
-0.0189126
-0.106136
-0.00182384
-0.114674
0.0169907
-0.133467
0.0450931
-0.152149
0.0506513
-0.137283
0.0218461
-0.0909975
-0.0265206
-0.0378058
-0.0658071
-0.00577105
-0.0777144
-0.00289363
-0.0667871
-0.0150697
-0.0492502
-0.0150137
-0.0215182
-0.0262804
0
0
0
0
0
0.137081
0.134889
0.134159
0.128943
0.126088
0.114078
0.10231
0.059376
-0.0779915
-0.0595725
-0.0562973
-0.0683135
-0.0573532
-0.0674581
-0.0511365
-0.0686042
-0.045642
-0.0329682
0
0
0
0
0
0
0
0
0
0
0
0
0
0
0
0
0
0
0
0
0
0
0
0
0
0
0
0
0
0
0
0
-0.065055
-0.067734
-0.0607296
-0.0709776
-0.0544532
-0.0744108
-0.0429529
-0.02668
0
0
0
0
0
0
0
0
0
0
0
0
0
0
0
0
0
0
0
0
0
0
0
0
0
0
0
0
0
0
0
0
0
0
0
0
0
0
0
0
0
0
0
0
0
0
0
0
0
0
0
0
0
0
0
0
0
0
0
0
0
0
0
0
0
0
0
0
0
0
0
0
0
0
0
0
0
0
0
0
0
0
0
0
0
0
0
0
0
0
0
0
0
0
0
0
0
0
0
0
0
0
0
0
0
0
0
0
0
0
0
0
0
0
0
0
0
0
0
0
0
0
0
0
0
0
0
0
0
0
0
0
0
0
0
0
0
0
0
0
0
0
0
0
0
0
0
0
0
0
0
0
0
0
0
0
0
0
0
0
0
0
0
0
0
0
0
0
0
0
0
0
0
0
0
0
0
0
0
0
0
0
0
0
0
0
0
0
0
0
0
0
0
0
0
0
0
0
0
0
0
0
0
0
0
0
0
0
0
0
0
0
0
0
0
0
0
0
0
0
0
0
0
0
0
0
0
0
0
0
0
0
0
0
0
0
0
0
0
0
0
0
0
0
0
0
0
0
0
0
0
0
0
0
0
0
0
0
0
0
0
0
0
0
0
0
0
0
0
0
0
0
0
0
0
0
0
0
0
0
0
0
0
0
0
0
0
0
0
0
0
0
0
0
0
0
0
0
0
0
0
0
0
0
0
0
0
0
0
0
0
0
0
0
0
0
0
0
0
0
0
0
0
0
0
0
0
0
0
0
0
0
0
0
0
0
0
0
0
0
0
0
0
0
0
0
0
0
0
0
0
0
0
0
0
0
0
0
0
0
0
0
0
0
0
0
0
0
0
0
0
0
0
0
0
0
0
0
0
0
0
0
0
0
0
0
0
0
0
0
0
0
0
0
0
0
0
0
0
0
0
0
0
0
0
0
0
0
0
0
0
0
0
0
0
0
0
0
0
0
0
0
0
0
0
0
0
0
0
0
0
0
0
0
0
0
0
0
0
0
0
0
0
0
0
0
0
0
0
0
0
0
0
0
0
0
0
0
0
0
0
0
0
0
0
0
0
0
0
0
0
0
0
0
0
0
0
0
0
0
0
0
0
0
0
0
0
0
0
0
0
0
0
0
0
0
0
0
0
0
0
0
0
0
0
0
0
0
0
0
0
0
0
0
0
0
0
0
0
0
0
0
0
0
0
0
0
0
0
0
0
0
0
0
0
0
0
0
0
0
0
0
0
0
0
0
0
0
0
0
0
0
0
0
0
0
0
0
0
0
0
0
0
0
0
0
0
0
0
0
0
0
0
0
0
0
0
0
0
0
0
0
0
0
0
0
0
0
0
0
0
0
0
0
0
0
0
0
0
0
0
0
0
0
0
0
0
0
0
0
0
0
0
0
0
0
0
0
0
0
0
0
0
0
0
0
0
0
0
0
0
0
0
0
0
0
0
0
0
0
0
0
0
0
0
0
0
0
0
0
0
0
0
0
0
0
0
0
0
0
0
0
0
0
0
0
0
0
0
0
0
0
0
0
0
0
0
0
0
0
0
0
0
0
0
0
0
0
0
0
0
0
0
0
0
0
0
0
0
0
0
0
0
0
0
0
0
0
0
0
0
0
0
0
0
0
0
0
0
0
0
0
0
0
0
0
0
0
0
0
0
0
0
0
0
0
0
0
0
0
0
0
0
0
0
0
0
0
0
0
0
0
0
0
0
0
0
0
0
0
0
0
0
0
0
0
0
0
0
0
0
0
0
0
0
0
0
0
0
0
0
0
0
0
0
0
0
0
0
0
0
0
SCALARS rhs double 1
LOOKUP_TABLE default
-5.26942
-5.20394
-5.17638
-5.17184
-5.16373
-5.15383
-5.15544
-5.15723
-5.15177
-5.13247
-5.1124
-5.09985
-5.06657
-5.05912
-5.04196
-5.05162
-5.07567
-5.10431
-5.1251
-5.05071
-5.02221
-4.98909
-4.97231
-4.94256
-4.95241
-4.94646
-4.9622
-4.95174
-4.95842
-4.94162
-4.94251
-4.92872
-4.92878
-4.92387
-4.92766
-4.93149
-4.9044
-4.89524
-4.9146
-4.87328
-4.87691
-4.92756
-4.95536
-4.99912
-4.89055
-4.70313
-4.71517
-4.72271
-4.9342
-4.8606
-0.104007
-0.0640963
-0.065651
-0.0545351
-0.0619697
-0.0617527
-0.0735693
-0.0792627
-0.0982986
-0.0484707
-0.0425488
-0.0227783
-0.0112398
0.00754203
-0.000107369
0.00144696
-0.0345442
-0.0769101
0.0197169
0.145872
0.109604
0.176646
0.0840731
0.188162
0.0717214
0.184784
0.0182025
0.167384
-0.0347189
0.169636
0.0166272
0.202166
0.129581
0.207981
0.1962
0.189667
0.222163
0.163977
0.251683
0.184015
0.23226
0.217556
0.190733
0.200355
0.190218
2.70938
2.26677
1.7197
2.41358
0.993009
-0.0554608
-0.0391308
-0.0367277
-0.0341442
-0.0370729
-0.044498
-0.0534423
-0.0779813
0.0353758
0.113699
0.12471
0.122224
0.133567
0.1406
0.144452
0.120977
0.120049
0.0312274
0.984231
1.51943
1.81529
4.28099
3.67849
3.58095
4.29093
7.60237
7.62398
7.46671
15.631
15.8165
14.773
13.3722
11.4439
9.36491
9.71457
10.7967
10.7823
8.79816
4.84449
4.81476
4.60385
2.90695
1.61381
2.5417
1.30423
-0.644364
0.907857
0.786108
0
0
0.127368
0.117129
0.130174
0.110141
0.135763
0.109032
0.133528
0.133265
1.04823
2.581
2.22589
1.0261
4.15727
3.81621
8.9208
11.1019
12.814
15.6753
35.4899
28.0565
20.5298
16.247
13.5584
10.8402
10.7865
8.4957
6.05141
2.40646
0
0
0
0
0
0
0
0
0
0
0
0
0
0
0
0
0
0
0
0
0
0
4.74023
4.7128
4.82665
4.78524
4.18322
3.72014
3.76069
4.49375
4.93377
7.83712
7.96544
8.66736
9.26158
8.97228
43.8307
32.8547
19.5017
9.00999
0
0
0
0
0
0
0
0
0
0
0
0
0
0
0
0
0
0
0
0
0
0
0
0
0
0
0
0
0
0
0
0
6.36602
6.31525
5.9657
5.40632
4.81609
4.65051
4.54086
5.49725
6.68708
4.04255
4.68643
4.81997
12.4974
35.3186
0
0
0
0
0
0
0
0
0
0
0
0
0
0
0
0
0
0
0
0
0
0
0
0
0
0
0
0
0
0
0
0
0
0
0
0
1.47614
1.54411
2.09799
2.47435
3.77929
5.12603
6.33856
5.10183
2.09579
1.47098
2.53607
14.3387
26.3021
0
0
0
0
0
0
0
0
0
0
0
0
0
0
0
0
0
0
0
0
0
0
0
0
0
0
0
0
0
0
0
0
0
0
0
0
0
2.59543
2.54951
1.62039
1.22694
0.49828
0.777197
0.916648
3.70181
7.89906
8.9678
11.6117
27.2717
0
0
0
0
0
0
0
0
0
0
0
0
0
0
0
0
0
0
0
0
0
0
0
0
0
0
0
0
0
0
0
0
0
0
0
0
0
0
2.45787
2.59584
4.01582
4.53242
6.43299
7.47839
9.23983
7.89527
5.98596
8.49533
41.2731
0
0
0
0
0
0
0
0
0
0
0
0
0
0
0
0
0
0
0
0
0
0
0
0
0
0
0
0
0
0
0
0
0
0
0
0
0
0
0
9.36633
9.33066
8.04142
9.25902
7.69325
7.78758
9.09454
10.208
11.1703
21.7759
3.2041
0
0
0
0
0
0
0
0
0
0
0
0
0
0
0
0
0
0
0
0
0
0
0
0
0
0
0
0
0
0
0
0
0
0
0
0
0
0
0
7.92952
10.0992
10.1145
8.86149
11.2589
12.4355
10.8064
8.57914
8.60392
43.2779
0
0
0
0
0
0
0
0
0
0
0
0
0
0
0
0
0
0
0
0
0
0
0
0
0
0
0
0
0
0
0
0
0
0
0
0
0
0
0
0
13.2058
10.8439
11.0393
13.0106
10.7272
10.2862
9.48307
9.57063
8.67562
33.2233
0
0
0
0
0
0
0
0
0
0
0
0
0
0
0
0
0
0
0
0
0
0
0
0
0
0
0
0
0
0
0
0
0
0
0
0
0
0
0
0
8.71388
9.82855
9.83715
7.65861
8.9401
7.02241
6.34758
6.44313
5.90605
26.1906
0
0
0
0
0
0
0
0
0
0
0
0
0
0
0
0
0
0
0
0
0
0
0
0
0
0
0
0
0
0
0
0
0
0
0
0
0
0
0
0
7.061
5.55892
5.71513
6.83869
5.56628
5.6724
5.42452
5.43401
4.26976
17.1298
0
0
0
0
0
0
0
0
0
0
0
0
0
0
0
0
0
0
0
0
0
0
0
0
0
0
0
0
0
0
0
0
0
0
0
0
0
0
0
0
6.55202
6.55536
6.55982
5.31204
5.40986
6.30896
5.08555
5.09432
5.2091
10.3371
0
0
0
0
0
0
0
0
0
0
0
0
0
0
0
0
0
0
0
0
0
0
0
0
0
0
0
0
0
0
0
0
0
0
0
0
0
0
0
0
5.52783
5.53996
5.54196
5.54121
5.54439
4.52522
5.16545
5.22779
16.4546
0
0
0
0
0
0
0
0
0
0
0
0
0
0
0
0
0
0
0
0
0
0
0
0
0
0
0
0
0
0
0
0
0
0
0
0
0
0
0
0
0
3.60674
3.66202
3.98033
3.98143
3.98244
3.98396
3.23505
3.31189
11.5415
0
0
0
0
0
0
0
0
0
0
0
0
0
0
0
0
0
0
0
0
0
0
0
0
0
0
0
0
0
0
0
0
0
0
0
0
0
0
0
0
0
6.01719
6.36025
5.75447
5.75462
5.75506
5.75536
5.75588
5.76119
8.30564
0
0
0
0
0
0
0
0
0
0
0
0
0
0
0
0
0
0
0
0
0
0
0
0
0
0
0
0
0
0
0
0
0
0
0
0
0
0
0
0
0
3.29611
2.74112
2.74112
2.74112
2.74112
2.74112
2.74112
2.74112
2.74112
0
0
0
0
0
0
0
0
0
0
0
0
0
0
0
0
0
0
0
0
0
0
0
0
0
0
0
0
0
0
0
0
0
0
0
0
0
0
0
0
0
0
0
0
0
0
0
0
0
0
0
0
0
0
0
0
0
0
0
0
0
0
0
0
0
0
0
0
0
0
0
0
0
0
0
0
0
0
0
0
0
0
0
0
0
0
0
0
0
0
0
