# vtk DataFile Version 4.0
Nusif Fluid VTK output
ASCII
DATASET STRUCTURED_POINTS
DIMENSIONS 50 20 1
ORIGIN 0 0 0 
SPACING 0.2 0.2 1
POINT_DATA 1000 

VECTORS velocity double
0.0493653 -0.0493653  0
0.0760507 -0.0795228  0
0.10613 -0.0527593  0
0.199375 -0.0424519  0
0.275814 -0.0379051  0
0.345462 -0.0356416  0
0.411656 -0.0344006  0
0.47607 -0.0337777  0
0.539495 -0.0335488  0
0.602444 -0.0332336  0
0.664942 -0.0331179  0
0.727166 -0.0330528  0
0.789742 -0.0333147  0
0.853139 -0.0339597  0
0.918085 -0.0348903  0
0.984878 -0.0357957  0
1.05135 -0.0345477  0
1.11418 -0.0321648  0
1.17271 -0.0302414  0
1.22725 -0.0281895  0
1.27799 -0.026424  0
1.32546 -0.0249302  0
1.37201 -0.0255069  0
1.4181 -0.0244551  0
1.46466 -0.0260054  0
1.51055 -0.0237488  0
1.5565 -0.0261083  0
1.60151 -0.0227564  0
1.64726 -0.0268969  0
1.6928 -0.0225027  0
1.7396 -0.0281907  0
1.78628 -0.02237  0
1.83314 -0.028367  0
1.87926 -0.0216389  0
1.92359 -0.0265639  0
1.96704 -0.020784  0
2.0077 -0.0237344  0
2.0487 -0.02116  0
2.08761 -0.0216136  0
2.12789 -0.0225561  0
2.16686 -0.0202961  0
2.20645 -0.0231601  0
2.24495 -0.0192235  0
2.28314 -0.0228408  0
2.32245 -0.0203462  0
2.36527 -0.0263494  0
2.41854 -0.0307993  0
2.48119 -0.0357205  0
2.5318 -0.0187705  0
2.54863 -0.00731533  0
0.0402433 -0.140928  0
0.0968547 -0.175414  0
0.145241 -0.139437  0
0.211641 -0.121221  0
0.279479 -0.111236  0
0.345336 -0.105612  0
0.409367 -0.102305  0
0.472103 -0.100661  0
0.534187 -0.0999368  0
0.595801 -0.0991687  0
0.65698 -0.0986131  0
0.717936 -0.0985139  0
0.778981 -0.0992382  0
0.841083 -0.101272  0
0.905464 -0.104677  0
0.97397 -0.109037  0
1.04037 -0.101974  0
1.10021 -0.0951379  0
1.15588 -0.0892648  0
1.2087 -0.0842502  0
1.25977 -0.0799555  0
1.3087 -0.0755254  0
1.3567 -0.0772426  0
1.40424 -0.0740977  0
1.45208 -0.0785152  0
1.49934 -0.0721725  0
1.54662 -0.0786356  0
1.59295 -0.0693791  0
1.63964 -0.0804021  0
1.68581 -0.0685303  0
1.73261 -0.0834593  0
1.77913 -0.0681044  0
1.82563 -0.0837282  0
1.87144 -0.0659655  0
1.916 -0.0788936  0
1.95953 -0.063175  0
2.00071 -0.0709565  0
2.04174 -0.0637021  0
2.08088 -0.0648894  0
2.12086 -0.0672894  0
2.15965 -0.0610887  0
2.1989 -0.0689483  0
2.23717 -0.0579591  0
2.27503 -0.0679192  0
2.31319 -0.0604836  0
2.35272 -0.0763124  0
2.39937 -0.0885197  0
2.45788 -0.1069  0
2.5 -0.0461436  0
2.5086 -0.0146307  0
0.0342031 -0.219245  0
0.0969605 -0.22229  0
0.156359 -0.206155  0
0.218919 -0.191188  0
0.282048 -0.180002  0
0.344318 -0.172729  0
0.405555 -0.168126  0
0.465937 -0.16578  0
0.52584 -0.164546  0
0.585375 -0.163463  0
0.644495 -0.162417  0
0.703382 -0.16223  0
0.762227 -0.163277  0
0.82176 -0.166607  0
0.883977 -0.173688  0
0.95469 -0.186976  0
1.01348 -0.155054  0
1.06775 -0.160021  0
1.12926 -0.145475  0
1.17772 -0.133159  0
1.23691 -0.145212  0
1.28232 -0.108455  0
1.34348 -0.157359  0
1.38384 -0.08576  0
1.44482 -0.179524  0
1.48095 -0.0584743  0
1.54511 -0.207594  0
1.57681 -0.0224015  0
1.64242 -0.243466  0
1.67197 0.0148543  0
1.73268 -0.278163  0
1.76719 0.0416538  0
1.81382 -0.290477  0
1.8634 0.0415255  0
1.88975 -0.261196  0
1.95931 0.00220323  0
1.96812 -0.190242  0
2.04963 -0.0707979  0
2.05224 -0.103445  0
2.128 -0.14834  0
2.13925 -0.0339608  0
2.19522 -0.195165  0
2.22487 -0.00353429  0
2.25979 -0.199013  0
2.30704 -0.0186691  0
2.32659 -0.18108  0
2.38088 -0.0885801  0
2.35402 -0.14236  0
2.41125 -0.0985529  0
2.47593 -0.00731533  0
0.0317848 -0.287149  0
0.0959527 -0.285181  0
0.159089 -0.269707  0
0.221658 -0.256653  0
0.283192 -0.243062  0
0.343214 -0.235819  0
0.402736 -0.229664  0
0.461167 -0.227005  0
0.519164 -0.225101  0
0.576679 -0.223786  0
0.633833 -0.222269  0
0.69128 -0.222559  0
0.747507 -0.221912  0
0.804079 -0.227958  0
0.85186 -0.226216  0
0.870274 -0.227471  0
0.961396 -0.201364  0
1.06658 -0.0970482  0
1.10931 -0.086452  0
1.18295 -0.0770986  0
1.21767 -0.0916808  0
1.29627 -0.0578599  0
1.32173 -0.105624  0
1.40523 -0.0361174  0
1.41875 -0.127014  0
1.509 -0.0100506  0
1.51084 -0.155066  0
1.6117 0.0242212  0
1.60576 -0.189961  0
1.7049 0.0608819  0
1.70618 -0.222894  0
1.77941 0.0873881  0
1.81536 -0.235116  0
1.83715 0.0858521  0
1.93101 -0.208866  0
1.89346 0.0445942  0
2.04097 -0.14302  0
1.96678 -0.0282558  0
2.12759 -0.0601689  0
2.061 -0.103607  0
2.18502 0.00683182  0
2.16685 -0.149377  0
2.22943 0.0352014  0
2.27352 -0.153934  0
2.28422 0.0214684  0
2.37891 -0.131117  0
2.32094 -0.0308597  0
2.39434 -0.0711798  0
1.17701 -0.0711798  0
0 0  0
0.0311001 -0.159467  0
0.086716 -0.158782  0
0.144541 -0.15023  0
0.207819 -0.144234  0
0.272019 -0.136391  0
0.336265 -0.133061  0
0.397784 -0.129442  0
0.458669 -0.128108  0
0.517313 -0.126944  0
0.575083 -0.126257  0
0.633366 -0.125347  0
0.690492 -0.12579  0
0.750379 -0.124559  0
0.801835 -0.128662  0
0.836933 -0.122315  0
0.861694 -0.113736  0
0.435137 -0.113736  0
0 0  0
0 0  0
0 0  0
0 0  0
0 0  0
0 0  0
0 0  0
0 0  0
0 0  0
0 0  0
0 0  0
0 0  0
0 0  0
0 0  0
0 0  0
0 0  0
0 0  0
0 0  0
0 0  0
0 0  0
0 0  0
0 0  0
0 0  0
0 0  0
0 0  0
0 0  0
0 0  0
0 0  0
0 0  0
0 0  0
0 0  0
0 0  0
0 0  0
0 0  0
0 0  0
0 0  0
0 0  0
0 0  0
0 0  0
0 0  0
0 0  0
0 0  0
0 0  0
0 0  0
0 0  0
0 0  0
0 0  0
0 0  0
0 0  0
0 0  0
0 0  0
0 0  0
0 0  0
0 0  0
0 0  0
0 0  0
0 0  0
0 0  0
0 0  0
0 0  0
0 0  0
0 0  0
0 0  0
0 0  0
0 0  0
0 0  0
0 0  0
0 0  0
0 0  0
0 0  0
0 0  0
0 0  0
0 0  0
0 0  0
0 0  0
0 0  0
0 0  0
0 0  0
0 0  0
0 0  0
0 0  0
0 0  0
0 0  0
0 0  0
0 0  0
0 0  0
0 0  0
0 0  0
0 0  0
0 0  0
0 0  0
0 0  0
0 0  0
0 0  0
0 0  0
0 0  0
0 0  0
0 0  0
0 0  0
0 0  0
0 0  0
0 0  0
0 0  0
0 0  0
0 0  0
0 0  0
0 0  0
0 0  0
0 0  0
0 0  0
0 0  0
0 0  0
0 0  0
0 0  0
0 0  0
0 0  0
0 0  0
0 0  0
0 0  0
0 0  0
0 0  0
0 0  0
0 0  0
0 0  0
0 0  0
0 0  0
0 0  0
0 0  0
0 0  0
0 0  0
0 0  0
0 0  0
0 0  0
0 0  0
0 0  0
0 0  0
0 0  0
0 0  0
0 0  0
0 0  0
0 0  0
0 0  0
0 0  0
0 0  0
0 0  0
0 0  0
0 0  0
0 0  0
0 0  0
0 0  0
0 0  0
0 0  0
0 0  0
0 0  0
0 0  0
0 0  0
0 0  0
0 0  0
0 0  0
0 0  0
0 0  0
0 0  0
0 0  0
0 0  0
0 0  0
0 0  0
0 0  0
0 0  0
0 0  0
0 0  0
0 0  0
0 0  0
0 0  0
0 0  0
0 0  0
0 0  0
0 0  0
0 0  0
0 0  0
0 0  0
0 0  0
0 0  0
0 0  0
0 0  0
0 0  0
0 0  0
0 0  0
0 0  0
0 0  0
0 0  0
0 0  0
0 0  0
0 0  0
0 0  0
0 0  0
0 0  0
0 0  0
0 0  0
0 0  0
0 0  0
0 0  0
0 0  0
0 0  0
0 0  0
0 0  0
0 0  0
0 0  0
0 0  0
0 0  0
0 0  0
0 0  0
0 0  0
0 0  0
0 0  0
0 0  0
0 0  0
0 0  0
0 0  0
0 0  0
0 0  0
0 0  0
0 0  0
0 0  0
0 0  0
0 0  0
0 0  0
0 0  0
0 0  0
0 0  0
0 0  0
0 0  0
0 0  0
0 0  0
0 0  0
0 0  0
0 0  0
0 0  0
0 0  0
0 0  0
0 0  0
0 0  0
0 0  0
0 0  0
0 0  0
0 0  0
0 0  0
0 0  0
0 0  0
0 0  0
0 0  0
0 0  0
0 0  0
0 0  0
0 0  0
0 0  0
0 0  0
0 0  0
0 0  0
0 0  0
0 0  0
0 0  0
0 0  0
0 0  0
0 0  0
0 0  0
0 0  0
0 0  0
0 0  0
0 0  0
0 0  0
0 0  0
0 0  0
0 0  0
0 0  0
0 0  0
0 0  0
0 0  0
0 0  0
0 0  0
0 0  0
0 0  0
0 0  0
0 0  0
0 0  0
0 0  0
0 0  0
0 0  0
0 0  0
0 0  0
0 0  0
0 0  0
0 0  0
0 0  0
0 0  0
0 0  0
0 0  0
0 0  0
0 0  0
0 0  0
0 0  0
0 0  0
0 0  0
0 0  0
0 0  0
0 0  0
0 0  0
0 0  0
0 0  0
0 0  0
0 0  0
0 0  0
0 0  0
0 0  0
0 0  0
0 0  0
0 0  0
0 0  0
0 0  0
0 0  0
0 0  0
0 0  0
0 0  0
0 0  0
0 0  0
0 0  0
0 0  0
0 0  0
0 0  0
0 0  0
0 0  0
0 0  0
0 0  0
0 0  0
0 0  0
0 0  0
0 0  0
0 0  0
0 0  0
0 0  0
0 0  0
0 0  0
0 0  0
0 0  0
0 0  0
0 0  0
0 0  0
0 0  0
0 0  0
0 0  0
0 0  0
0 0  0
0 0  0
0 0  0
0 0  0
0 0  0
0 0  0
0 0  0
0 0  0
0 0  0
0 0  0
0 0  0
0 0  0
0 0  0
0 0  0
0 0  0
0 0  0
0 0  0
0 0  0
0 0  0
0 0  0
0 0  0
0 0  0
0 0  0
0 0  0
0 0  0
0 0  0
0 0  0
0 0  0
0 0  0
0 0  0
0 0  0
0 0  0
0 0  0
0 0  0
0 0  0
0 0  0
0 0  0
0 0  0
0 0  0
0 0  0
0 0  0
0 0  0
0 0  0
0 0  0
0 0  0
0 0  0
0 0  0
0 0  0
0 0  0
0 0  0
0 0  0
0 0  0
0 0  0
0 0  0
0 0  0
0 0  0
0 0  0
0 0  0
0 0  0
0 0  0
0 0  0
0 0  0
0 0  0
0 0  0
0 0  0
0 0  0
0 0  0
0 0  0
0 0  0
0 0  0
0 0  0
0 0  0
0 0  0
0 0  0
0 0  0
0 0  0
0 0  0
0 0  0
0 0  0
0 0  0
0 0  0
0 0  0
0 0  0
0 0  0
0 0  0
0 0  0
0 0  0
0 0  0
0 0  0
0 0  0
0 0  0
0 0  0
0 0  0
0 0  0
0 0  0
0 0  0
0 0  0
0 0  0
0 0  0
0 0  0
0 0  0
0 0  0
0 0  0
0 0  0
0 0  0
0 0  0
0 0  0
0 0  0
0 0  0
0 0  0
0 0  0
0 0  0
0 0  0
0 0  0
0 0  0
0 0  0
0 0  0
0 0  0
0 0  0
0 0  0
0 0  0
0 0  0
0 0  0
0 0  0
0 0  0
0 0  0
0 0  0
0 0  0
0 0  0
0 0  0
0 0  0
0 0  0
0 0  0
0 0  0
0 0  0
0 0  0
0 0  0
0 0  0
0 0  0
0 0  0
0 0  0
0 0  0
0 0  0
0 0  0
0 0  0
0 0  0
0 0  0
0 0  0
0 0  0
0 0  0
0 0  0
0 0  0
0 0  0
0 0  0
0 0  0
0 0  0
0 0  0
0 0  0
0 0  0
0 0  0
0 0  0
0 0  0
0 0  0
0 0  0
0 0  0
0 0  0
0 0  0
0 0  0
0 0  0
0 0  0
0 0  0
0 0  0
0 0  0
0 0  0
0 0  0
0 0  0
0 0  0
0 0  0
0 0  0
0 0  0
0 0  0
0 0  0
0 0  0
0 0  0
0 0  0
0 0  0
0 0  0
0 0  0
0 0  0
0 0  0
0 0  0
0 0  0
0 0  0
0 0  0
0 0  0
0 0  0
0 0  0
0 0  0
0 0  0
0 0  0
0 0  0
0 0  0
0 0  0
0 0  0
0 0  0
0 0  0
0 0  0
0 0  0
0 0  0
0 0  0
0 0  0
0 0  0
0 0  0
0 0  0
0 0  0
0 0  0
0 0  0
0 0  0
0 0  0
0 0  0
0 0  0
0 0  0
0 0  0
0 0  0
0 0  0
0 0  0
0 0  0
0 0  0
0 0  0
0 0  0
0 0  0
0 0  0
0 0  0
0 0  0
0 0  0
0 0  0
0 0  0
0 0  0
0 0  0
0 0  0
0 0  0
0 0  0
0 0  0
0 0  0
0 0  0
0 0  0
0 0  0
0 0  0
0 0  0
0 0  0
0 0  0
0 0  0
0 0  0
0 0  0
0 0  0
0 0  0
0 0  0
0 0  0
0 0  0
0 0  0
0 0  0
0 0  0
0 0  0
0 0  0
0 0  0
0 0  0
0 0  0
0 0  0
0 0  0
0 0  0
0 0  0
0 0  0
0 0  0
0 0  0
0 0  0
0 0  0
0 0  0
0 0  0
0 0  0
0 0  0
0 0  0
0 0  0
0 0  0
0 0  0
0 0  0
0 0  0
0 0  0
0 0  0
0 0  0
0 0  0
0 0  0
0 0  0
0 0  0
0 0  0
0 0  0
0 0  0
0 0  0
0 0  0
0 0  0
0 0  0
0 0  0
0 0  0
0 0  0
0 0  0
0 0  0
0 0  0
0 0  0
0 0  0
0 0  0
0 0  0
0 0  0
0 0  0
0 0  0
0 0  0
0 0  0
0 0  0
0 0  0
0 0  0
0 0  0
0 0  0
0 0  0
0 0  0
0 0  0
0 0  0
0 0  0
0 0  0
0 0  0
0 0  0
0 0  0
0 0  0
0 0  0
0 0  0
0 0  0
0 0  0
0 0  0
0 0  0
0 0  0
0 0  0
0 0  0
0 0  0
0 0  0
0 0  0
0 0  0
0 0  0
0 0  0
0 0  0
0 0  0
0 0  0
0 0  0
0 0  0
0 0  0
0 0  0
0 0  0
0 0  0
0 0  0
0 0  0
0 0  0
0 0  0
0 0  0
0 0  0
0 0  0
0 0  0
0 0  0
0 0  0
0 0  0
0 0  0
0 0  0
0 0  0
0 0  0
0 0  0
0 0  0
0 0  0
0 0  0
0 0  0
0 0  0
0 0  0
0 0  0
0 0  0
0 0  0
0 0  0
0 0  0
0 0  0
0 0  0
0 0  0
0 0  0
0 0  0
0 0  0
0 0  0
0 0  0
0 0  0
0 0  0
0 0  0
0 0  0
0 0  0
0 0  0
0 0  0
0 0  0
0 0  0
0 0  0
0 0  0
0 0  0
0 0  0
0 0  0
0 0  0
0 0  0
0 0  0
0 0  0
0 0  0
0 0  0
0 0  0
0 0  0
0 0  0
0 0  0
0 0  0
0 0  0
0 0  0
0 0  0
0 0  0
0 0  0
0 0  0
0 0  0
0 0  0
0 0  0
0 0  0
0 0  0
0 0  0
0 0  0
0 0  0
0 0  0
0 0  0
0 0  0
0 0  0
0 0  0

SCALARS pressure double 1
LOOKUP_TABLE default
0.0733543
0
0.0702234
0.2737
0.393935
0.467541
0.513454
0.54174
0.558159
0.567321
0.569246
0.566426
0.557242
0.540387
0.514001
0.476924
0.43391
0.406244
0.389029
0.378366
0.373689
0.369338
0.372263
0.368941
0.376124
0.371676
0.383502
0.376956
0.393941
0.383544
0.40351
0.387396
0.405636
0.385131
0.397343
0.379069
0.384175
0.376772
0.376125
0.380964
0.374427
0.384532
0.372732
0.379628
0.363745
0.358458
0.329769
0.287838
0.225952
0.218651
-0.00800207
-0.0677346
0.0378991
0.148304
0.229211
0.284055
0.319627
0.341815
0.355427
0.362157
0.364432
0.361637
0.353765
0.339356
0.313107
0.270731
0.205303
0.185602
0.172726
0.164724
0.165694
0.155774
0.171382
0.151969
0.180934
0.148618
0.195818
0.146152
0.2158
0.14525
0.234148
0.14497
0.238926
0.145105
0.222471
0.149569
0.191285
0.164898
0.164856
0.18752
0.152219
0.201715
0.148745
0.197814
0.147385
0.174927
0.132685
0.0982029
-0.0205843
0
-0.0362881
-0.0417309
-0.00522363
0.042541
0.0813823
0.110353
0.129421
0.141785
0.149701
0.153478
0.154679
0.153407
0.148231
0.140169
0.119072
0.0751368
-0.0762884
-0.0491518
-0.0504657
-0.0654645
-0.0313459
-0.0926943
0.00630359
-0.125726
0.0463433
-0.170577
0.0996187
-0.228095
0.163602
-0.287598
0.220016
-0.323992
0.235165
-0.304293
0.180317
-0.213795
0.0621731
-0.0770958
-0.0727001
0.0492905
-0.167566
0.11428
-0.193789
0.10876
-0.158587
0.0572412
-0.0794338
-0.0128707
0
0
-0.0658881
-0.0628899
-0.066154
-0.0604294
-0.0626514
-0.0591795
-0.0597141
-0.0585693
-0.0581374
-0.0578233
-0.0579615
-0.0566461
-0.0591852
-0.051922
-0.0575386
-0.0208021
0
0
0
0
0
0
0
0
0
0
0
0
0
0
0
0
0
0
0
0
0
0
0
0
0
0
0
0
0
0
0
0
0
0
0
0
0
0
0
0
0
0
0
0
0
0
0
0
0
0
0
0
0
0
0
0
0
0
0
0
0
0
0
0
0
0
0
0
0
0
0
0
0
0
0
0
0
0
0
0
0
0
0
0
0
0
0
0
0
0
0
0
0
0
0
0
0
0
0
0
0
0
0
0
0
0
0
0
0
0
0
0
0
0
0
0
0
0
0
0
0
0
0
0
0
0
0
0
0
0
0
0
0
0
0
0
0
0
0
0
0
0
0
0
0
0
0
0
0
0
0
0
0
0
0
0
0
0
0
0
0
0
0
0
0
0
0
0
0
0
0
0
0
0
0
0
0
0
0
0
0
0
0
0
0
0
0
0
0
0
0
0
0
0
0
0
0
0
0
0
0
0
0
0
0
0
0
0
0
0
0
0
0
0
0
0
0
0
0
0
0
0
0
0
0
0
0
0
0
0
0
0
0
0
0
0
0
0
0
0
0
0
0
0
0
0
0
0
0
0
0
0
0
0
0
0
0
0
0
0
0
0
0
0
0
0
0
0
0
0
0
0
0
0
0
0
0
0
0
0
0
0
0
0
0
0
0
0
0
0
0
0
0
0
0
0
0
0
0
0
0
0
0
0
0
0
0
0
0
0
0
0
0
0
0
0
0
0
0
0
0
0
0
0
0
0
0
0
0
0
0
0
0
0
0
0
0
0
0
0
0
0
0
0
0
0
0
0
0
0
0
0
0
0
0
0
0
0
0
0
0
0
0
0
0
0
0
0
0
0
0
0
0
0
0
0
0
0
0
0
0
0
0
0
0
0
0
0
0
0
0
0
0
0
0
0
0
0
0
0
0
0
0
0
0
0
0
0
0
0
0
0
0
0
0
0
0
0
0
0
0
0
0
0
0
0
0
0
0
0
0
0
0
0
0
0
0
0
0
0
0
0
0
0
0
0
0
0
0
0
0
0
0
0
0
0
0
0
0
0
0
0
0
0
0
0
0
0
0
0
0
0
0
0
0
0
0
0
0
0
0
0
0
0
0
0
0
0
0
0
0
0
0
0
0
0
0
0
0
0
0
0
0
0
0
0
0
0
0
0
0
0
0
0
0
0
0
0
0
0
0
0
0
0
0
0
0
0
0
0
0
0
0
0
0
0
0
0
0
0
0
0
0
0
0
0
0
0
0
0
0
0
0
0
0
0
0
0
0
0
0
0
0
0
0
0
0
0
0
0
0
0
0
0
0
0
0
0
0
0
0
0
0
0
0
0
0
0
0
0
0
0
0
0
0
0
0
0
0
0
0
0
0
0
0
0
0
0
0
0
0
0
0
0
0
0
0
0
0
0
0
0
0
0
0
0
0
0
0
0
0
0
0
0
0
0
0
0
0
0
0
0
0
0
0
0
0
0
0
0
0
0
0
0
0
0
0
0
0
0
0
0
0
0
0
0
0
0
0
0
0
0
0
0
0
0
0
0
0
0
0
0
0
0
0
0
0
0
0
0
0
0
0
0
0
0
0
0
0
0
0
0
0
0
0
0
0
0
0
0
0
0
0
0
0
0
0
0
0
0
0
0
0
0
0
0
0
0
0
0
0
0
0
0
0
0
0
0
0
0
0
0
0
0
0
0
0
0
0
0
0
0
0
0
0
0
0
0
0
0
0
0
0
0
0
0
0
0
0
0
0
0
0
0
0
0
0
0
0
0
0
0
0
0
0
0
0
0
0
0
0
0
0
0
0
0
0
0
0
0
0
0
0
0
0
0
0
0
0
0
0
0
0
0
0
0
0
0
0
0
0
0
0
0
0
0
0
0
0
0
0
0
0
0
SCALARS rhs double 1
LOOKUP_TABLE default
-4.6658
-5.16927
-4.66785
-5.22302
-5.28692
-5.28186
-5.27669
-5.27642
-5.27422
-5.2745
-5.26873
-5.26651
-5.26957
-5.27335
-5.28699
-5.30999
-5.32352
-5.2647
-5.23224
-5.20632
-5.1764
-5.17566
-5.1608
-5.17959
-5.1567
-5.18047
-5.14759
-5.18001
-5.14737
-5.18454
-5.15408
-5.18383
-5.1543
-5.1691
-5.14466
-5.14745
-5.1368
-5.13115
-5.13807
-5.1281
-5.13323
-5.12138
-5.1309
-5.11513
-5.14409
-5.17338
-5.25812
-5.23977
-4.79878
-5.28376
-0.170528
0.352723
-0.141204
-0.245451
-0.237221
-0.234442
-0.228286
-0.231751
-0.228071
-0.230436
-0.224638
-0.226774
-0.224921
-0.235472
-0.24361
-0.288989
-0.21563
-0.14099
-0.100714
-0.129364
-0.066123
-0.158838
-0.0597259
-0.229024
-0.0910059
-0.351922
-0.181722
-0.575064
-0.362999
-0.890762
-0.541236
-1.12614
-0.573596
-1.00142
-0.395981
-0.515433
-0.0837954
-0.107359
-0.0855144
-0.0671971
-0.322588
-0.174677
-0.413917
-0.168174
-0.290985
-0.0984271
-0.181895
-0.143582
4.02349
2.60292
-0.163254
-0.134142
-0.167732
-0.152288
-0.149098
-0.141552
-0.140448
-0.137836
-0.138705
-0.135474
-0.134213
-0.135478
-0.130853
-0.137647
-0.147242
-0.189015
0.47421
1.45261
0.547137
3.12935
3.4252
5.8909
5.2884
5.19086
5.90085
9.21228
9.2339
9.07662
17.2409
17.4264
16.3829
14.9822
13.0538
10.9748
11.3245
12.4066
12.3922
10.4081
6.4544
6.42467
6.21376
4.51686
3.22372
4.15161
2.91414
0.965547
1.62473
2.18673
0
0
0.250311
0.272494
0.347073
0.407882
0.539186
0.631557
1.74344
1.74318
2.65814
4.19091
3.8358
2.63601
5.76718
5.42612
10.5307
12.7118
13.9393
15.7691
35.7955
28.0565
20.5298
16.247
13.5584
10.8402
10.7865
8.4957
6.05141
2.40646
0
0
0
0
0
0
0
0
0
0
0
0
0
0
0
0
0
0
0
0
0
0
5.36272
5.33529
5.71969
5.67828
4.75936
4.29628
3.76069
4.49375
4.93377
7.83712
7.96544
8.66736
9.26158
8.97228
43.8307
32.8547
19.5017
9.00999
0
0
0
0
0
0
0
0
0
0
0
0
0
0
0
0
0
0
0
0
0
0
0
0
0
0
0
0
0
0
0
0
6.36602
6.31525
5.9657
5.40632
4.81609
4.65051
4.54086
5.49725
6.68708
4.04255
4.68643
4.81997
12.4974
35.3186
0
0
0
0
0
0
0
0
0
0
0
0
0
0
0
0
0
0
0
0
0
0
0
0
0
0
0
0
0
0
0
0
0
0
0
0
1.47614
1.54411
2.09799
2.47435
3.77929
5.12603
6.33856
5.10183
2.09579
1.47098
2.53607
14.3387
26.3021
0
0
0
0
0
0
0
0
0
0
0
0
0
0
0
0
0
0
0
0
0
0
0
0
0
0
0
0
0
0
0
0
0
0
0
0
0
2.59543
2.54951
1.62039
1.22694
0.49828
0.777197
0.916648
3.70181
7.89906
8.9678
11.6117
27.2717
0
0
0
0
0
0
0
0
0
0
0
0
0
0
0
0
0
0
0
0
0
0
0
0
0
0
0
0
0
0
0
0
0
0
0
0
0
0
2.45787
2.59584
4.01582
4.53242
6.43299
7.47839
9.23983
7.89527
5.98596
8.49533
41.2731
0
0
0
0
0
0
0
0
0
0
0
0
0
0
0
0
0
0
0
0
0
0
0
0
0
0
0
0
0
0
0
0
0
0
0
0
0
0
0
9.36633
9.33066
8.04142
9.25902
7.69325
7.78758
9.09454
10.208
11.1703
21.7759
3.2041
0
0
0
0
0
0
0
0
0
0
0
0
0
0
0
0
0
0
0
0
0
0
0
0
0
0
0
0
0
0
0
0
0
0
0
0
0
0
0
7.92952
10.0992
10.1145
8.86149
11.2589
12.4355
10.8064
8.57914
8.60392
43.2779
0
0
0
0
0
0
0
0
0
0
0
0
0
0
0
0
0
0
0
0
0
0
0
0
0
0
0
0
0
0
0
0
0
0
0
0
0
0
0
0
13.2058
10.8439
11.0393
13.0106
10.7272
10.2862
9.48307
9.57063
8.67562
33.2233
0
0
0
0
0
0
0
0
0
0
0
0
0
0
0
0
0
0
0
0
0
0
0
0
0
0
0
0
0
0
0
0
0
0
0
0
0
0
0
0
8.71388
9.82855
9.83715
7.65861
8.9401
7.02241
6.34758
6.44313
5.90605
26.1906
0
0
0
0
0
0
0
0
0
0
0
0
0
0
0
0
0
0
0
0
0
0
0
0
0
0
0
0
0
0
0
0
0
0
0
0
0
0
0
0
7.061
5.55892
5.71513
6.83869
5.56628
5.6724
5.42452
5.43401
4.26976
17.1298
0
0
0
0
0
0
0
0
0
0
0
0
0
0
0
0
0
0
0
0
0
0
0
0
0
0
0
0
0
0
0
0
0
0
0
0
0
0
0
0
6.55202
6.55536
6.55982
5.31204
5.40986
6.30896
5.08555
5.09432
5.2091
10.3371
0
0
0
0
0
0
0
0
0
0
0
0
0
0
0
0
0
0
0
0
0
0
0
0
0
0
0
0
0
0
0
0
0
0
0
0
0
0
0
0
5.52783
5.53996
5.54196
5.54121
5.54439
4.52522
5.16545
5.22779
16.4546
0
0
0
0
0
0
0
0
0
0
0
0
0
0
0
0
0
0
0
0
0
0
0
0
0
0
0
0
0
0
0
0
0
0
0
0
0
0
0
0
0
3.60674
3.66202
3.98033
3.98143
3.98244
3.98396
3.23505
3.31189
11.5415
0
0
0
0
0
0
0
0
0
0
0
0
0
0
0
0
0
0
0
0
0
0
0
0
0
0
0
0
0
0
0
0
0
0
0
0
0
0
0
0
0
6.01719
6.36025
5.75447
5.75462
5.75506
5.75536
5.75588
5.76119
8.30564
0
0
0
0
0
0
0
0
0
0
0
0
0
0
0
0
0
0
0
0
0
0
0
0
0
0
0
0
0
0
0
0
0
0
0
0
0
0
0
0
0
3.29611
2.74112
2.74112
2.74112
2.74112
2.74112
2.74112
2.74112
2.74112
0
0
0
0
0
0
0
0
0
0
0
0
0
0
0
0
0
0
0
0
0
0
0
0
0
0
0
0
0
0
0
0
0
0
0
0
0
0
0
0
0
0
0
0
0
0
0
0
0
0
0
0
0
0
0
0
0
0
0
0
0
0
0
0
0
0
0
0
0
0
0
0
0
0
0
0
0
0
0
0
0
0
0
0
0
0
0
0
0
0
0
