# vtk DataFile Version 4.0
Nusif Fluid VTK output
ASCII
DATASET STRUCTURED_POINTS
DIMENSIONS 50 20 1
ORIGIN 0 0 0 
SPACING 0.2 0.2 1
POINT_DATA 1000 

VECTORS velocity double
0.0423399 -0.046528  0
0.128107 -0.0467874  0
0.216196 -0.0469791  0
0.305248 -0.0484666  0
0.396216 -0.0493435  0
0.490712 -0.0511489  0
0.588905 -0.0533299  0
0.692326 -0.0561545  0
0.801964 -0.0594856  0
0.918648 -0.0631199  0
1.0427 -0.0668405  0
1.17391 -0.0702332  0
1.31047 -0.072102  0
1.4477 -0.0708836  0
1.57902 -0.0661373  0
1.69949 -0.0600027  0
1.80752 -0.0536497  0
1.90255 -0.0469675  0
1.98554 -0.041586  0
2.0581 -0.036502  0
2.12091 -0.0318425  0
2.17531 -0.0280782  0
2.22363 -0.02588  0
2.26941 -0.0254409  0
2.31533 -0.0259883  0
2.35999 -0.024126  0
2.39453 -0.0158521  0
2.41443 -0.00962581  0
2.42772 -0.00911399  0
2.44299 -0.0116382  0
2.45488 -0.00574546  0
2.43974 0.015402  0
2.3974 0.0214617  0
2.37319 0  0
1.1866 0  0
0 0  0
0 0  0
0 0  0
0 0  0
0 0  0
0 0  0
0 0  0
0 0  0
0 0  0
0 0  0
0 0  0
0 0  0
0 0  0
0 0  0
0 0  0
0.0421778 -0.13868  0
0.12793 -0.139278  0
0.214924 -0.140903  0
0.303352 -0.144165  0
0.393959 -0.147412  0
0.486973 -0.152323  0
0.583742 -0.158789  0
0.685161 -0.167087  0
0.792342 -0.176867  0
0.905707 -0.187242  0
1.02519 -0.19762  0
1.15108 -0.207915  0
1.28296 -0.214141  0
1.4164 -0.210724  0
1.54295 -0.195315  0
1.65759 -0.177024  0
1.76063 -0.158795  0
1.8499 -0.137154  0
1.92691 -0.122417  0
1.99588 -0.108198  0
2.05676 -0.0948159  0
2.11005 -0.0838306  0
2.15773 -0.0773098  0
2.20328 -0.0762308  0
2.25038 -0.0791252  0
2.29954 -0.0758727  0
2.33797 -0.0479565  0
2.35967 -0.0300915  0
2.37505 -0.0282933  0
2.39373 -0.037373  0
2.41954 -0.0286773  0
2.43499 0.029804  0
2.43599 0.0429234  0
2.40459 0.0214617  0
1.1866 0  0
0 0  0
0 0  0
0 0  0
0 0  0
0 0  0
0 0  0
0 0  0
0 0  0
0 0  0
0 0  0
0 0  0
0 0  0
0 0  0
0 0  0
0 0  0
0.042116 -0.229325  0
0.126944 -0.230672  0
0.212896 -0.23415  0
0.300619 -0.238219  0
0.389928 -0.24384  0
0.480823 -0.25114  0
0.57457 -0.261278  0
0.672238 -0.274609  0
0.774901 -0.29016  0
0.882033 -0.305497  0
0.991783 -0.319548  0
1.10559 -0.336594  0
1.2267 -0.349374  0
1.35195 -0.345078  0
1.46872 -0.315186  0
1.57256 -0.286482  0
1.66972 -0.260434  0
1.75164 -0.217613  0
1.8194 -0.197624  0
1.88491 -0.178411  0
1.94656 -0.158063  0
2.0022 -0.140521  0
2.05242 -0.129486  0
2.09944 -0.127434  0
2.14775 -0.134223  0
2.20102 -0.134268  0
2.24365 -0.0788395  0
2.27345 -0.056096  0
2.29886 -0.0486083  0
2.31747 -0.0598262  0
2.32583 -0.0458637  0
2.37385 -0.00852979  0
2.42893 0.0214617  0
1.218 0.0214617  0
0 0  0
0 0  0
0 0  0
0 0  0
0 0  0
0 0  0
0 0  0
0 0  0
0 0  0
0 0  0
0 0  0
0 0  0
0 0  0
0 0  0
0 0  0
0 0  0
0.0417063 -0.318923  0
0.125588 -0.321591  0
0.211038 -0.32623  0
0.297988 -0.331579  0
0.385549 -0.338056  0
0.473668 -0.346915  0
0.562879 -0.359331  0
0.654984 -0.37723  0
0.751803 -0.397969  0
0.850606 -0.414565  0
0.945748 -0.426269  0
1.03992 -0.448666  0
1.14288 -0.472243  0
1.25489 -0.470357  0
1.35589 -0.418575  0
1.44451 -0.386445  0
1.5355 -0.359496  0
1.61929 -0.292443  0
1.69625 -0.272952  0
1.76708 -0.244893  0
1.83472 -0.226353  0
1.90013 -0.198781  0
1.9565 -0.183231  0
2.01006 -0.179737  0
2.05308 -0.178737  0
2.06964 -0.165042  0
2.15286 -0.129256  0
2.25614 -0.0356303  0
2.29733 -0.029429  0
2.31097 -0.0340914  0
2.31467 -0.0229318  0
1.16291 -0.0229318  0
0 0  0
0 0  0
0 0  0
0 0  0
0 0  0
0 0  0
0 0  0
0 0  0
0 0  0
0 0  0
0 0  0
0 0  0
0 0  0
0 0  0
0 0  0
0 0  0
0 0  0
0 0  0
0.0411422 -0.407603  0
0.124238 -0.411544  0
0.209262 -0.417719  0
0.295901 -0.424363  0
0.38181 -0.429603  0
0.465631 -0.438097  0
0.5482 -0.450865  0
0.632851 -0.47339  0
0.723977 -0.500622  0
0.812065 -0.5096  0
0.889799 -0.514947  0
0.964343 -0.539557  0
1.04387 -0.574721  0
1.13213 -0.579023  0
1.21878 -0.505717  0
1.29012 -0.464722  0
1.32088 -0.408414  0
1.48002 -0.369224  0
1.66941 -0.156159  0
1.74218 -0.138178  0
1.81055 -0.131264  0
1.87405 -0.114012  0
1.94558 -0.105175  0
2.00254 -0.103093  0
2.03251 -0.0976509  0
2.05451 -0.0825208  0
1.03482 -0.0825208  0
0 0  0
0 0  0
0 0  0
0 0  0
0 0  0
0 0  0
0 0  0
0 0  0
0 0  0
0 0  0
0 0  0
0 0  0
0 0  0
0 0  0
0 0  0
0 0  0
0 0  0
0 0  0
0 0  0
0 0  0
0 0  0
0 0  0
0 0  0
0.0404506 -0.495051  0
0.122456 -0.500477  0
0.206606 -0.508753  0
0.294145 -0.518189  0
0.377058 -0.515301  0
0.452074 -0.522067  0
0.526432 -0.534739  0
0.60362 -0.562232  0
0.688554 -0.598609  0
0.759942 -0.579153  0
0.832657 -0.601274  0
0.902234 -0.602801  0
0.954521 -0.648717  0
0.983613 -0.627807  0
1.09608 -0.587053  0
1.22118 -0.247738  0
1.27734 -0.204207  0
0.660438 -0.204207  0
0 0  0
0 0  0
0 0  0
0 0  0
0 0  0
0 0  0
0 0  0
0 0  0
0 0  0
0 0  0
0 0  0
0 0  0
0 0  0
0 0  0
0 0  0
0 0  0
0 0  0
0 0  0
0 0  0
0 0  0
0 0  0
0 0  0
0 0  0
0 0  0
0 0  0
0 0  0
0 0  0
0 0  0
0 0  0
0 0  0
0 0  0
0 0  0
0.0397753 -0.580944  0
0.119213 -0.586999  0
0.200658 -0.598597  0
0.28882 -0.614813  0
0.360067 -0.580833  0
0.428353 -0.605257  0
0.503995 -0.606994  0
0.562705 -0.631276  0
0.589191 -0.646356  0
0.708818 -0.625921  0
0.842912 -0.323828  0
0.917311 -0.312999  0
0.955426 -0.338905  0
0.958612 -0.313903  0
0.491806 -0.313903  0
0 0  0
0 0  0
0 0  0
0 0  0
0 0  0
0 0  0
0 0  0
0 0  0
0 0  0
0 0  0
0 0  0
0 0  0
0 0  0
0 0  0
0 0  0
0 0  0
0 0  0
0 0  0
0 0  0
0 0  0
0 0  0
0 0  0
0 0  0
0 0  0
0 0  0
0 0  0
0 0  0
0 0  0
0 0  0
0 0  0
0 0  0
0 0  0
0 0  0
0 0  0
0 0  0
0.0367013 -0.660193  0
0.116604 -0.672515  0
0.176065 -0.65938  0
0.192326 -0.663857  0
0.310118 -0.634779  0
0.445111 -0.324338  0
0.508538 -0.319609  0
0.566274 -0.328881  0
0.583488 -0.323178  0
0.294595 -0.323178  0
0 0  0
0 0  0
0 0  0
0 0  0
0 0  0
0 0  0
0 0  0
0 0  0
0 0  0
0 0  0
0 0  0
0 0  0
0 0  0
0 0  0
0 0  0
0 0  0
0 0  0
0 0  0
0 0  0
0 0  0
0 0  0
0 0  0
0 0  0
0 0  0
0 0  0
0 0  0
0 0  0
0 0  0
0 0  0
0 0  0
0 0  0
0 0  0
0 0  0
0 0  0
0 0  0
0 0  0
0 0  0
0 0  0
0 0  0
0 0  0
0.0461124 -0.348447  0
0.105977 -0.357858  0
0.150136 -0.33782  0
0.186435 -0.331929  0
0.0961632 -0.331929  0
0 0  0
0 0  0
0 0  0
0 0  0
0 0  0
0 0  0
0 0  0
0 0  0
0 0  0
0 0  0
0 0  0
0 0  0
0 0  0
0 0  0
0 0  0
0 0  0
0 0  0
0 0  0
0 0  0
0 0  0
0 0  0
0 0  0
0 0  0
0 0  0
0 0  0
0 0  0
0 0  0
0 0  0
0 0  0
0 0  0
0 0  0
0 0  0
0 0  0
0 0  0
0 0  0
0 0  0
0 0  0
0 0  0
0 0  0
0 0  0
0 0  0
0 0  0
0 0  0
0 0  0
0 0  0
0 0  0
0 0  0
0 0  0
0 0  0
0 0  0
0 0  0
0 0  0
0 0  0
0 0  0
0 0  0
0 0  0
0 0  0
0 0  0
0 0  0
0 0  0
0 0  0
0 0  0
0 0  0
0 0  0
0 0  0
0 0  0
0 0  0
0 0  0
0 0  0
0 0  0
0 0  0
0 0  0
0 0  0
0 0  0
0 0  0
0 0  0
0 0  0
0 0  0
0 0  0
0 0  0
0 0  0
0 0  0
0 0  0
0 0  0
0 0  0
0 0  0
0 0  0
0 0  0
0 0  0
0 0  0
0 0  0
0 0  0
0 0  0
0 0  0
0 0  0
0 0  0
0 0  0
0 0  0
0 0  0
0 0  0
0 0  0
0 0  0
0 0  0
0 0  0
0 0  0
0 0  0
0 0  0
0 0  0
0 0  0
0 0  0
0 0  0
0 0  0
0 0  0
0 0  0
0 0  0
0 0  0
0 0  0
0 0  0
0 0  0
0 0  0
0 0  0
0 0  0
0 0  0
0 0  0
0 0  0
0 0  0
0 0  0
0 0  0
0 0  0
0 0  0
0 0  0
0 0  0
0 0  0
0 0  0
0 0  0
0 0  0
0 0  0
0 0  0
0 0  0
0 0  0
0 0  0
0 0  0
0 0  0
0 0  0
0 0  0
0 0  0
0 0  0
0 0  0
0 0  0
0 0  0
0 0  0
0 0  0
0 0  0
0 0  0
0 0  0
0 0  0
0 0  0
0 0  0
0 0  0
0 0  0
0 0  0
0 0  0
0 0  0
0 0  0
0 0  0
0 0  0
0 0  0
0 0  0
0 0  0
0 0  0
0 0  0
0 0  0
0 0  0
0 0  0
0 0  0
0 0  0
0 0  0
0 0  0
0 0  0
0 0  0
0 0  0
0 0  0
0 0  0
0 0  0
0 0  0
0 0  0
0 0  0
0 0  0
0 0  0
0 0  0
0 0  0
0 0  0
0 0  0
0 0  0
0 0  0
0 0  0
0 0  0
0 0  0
0 0  0
0 0  0
0 0  0
0 0  0
0 0  0
0 0  0
0 0  0
0 0  0
0 0  0
0 0  0
0 0  0
0 0  0
0 0  0
0 0  0
0 0  0
0 0  0
0 0  0
0 0  0
0 0  0
0 0  0
0 0  0
0 0  0
0 0  0
0 0  0
0 0  0
0 0  0
0 0  0
0 0  0
0 0  0
0 0  0
0 0  0
0 0  0
0 0  0
0 0  0
0 0  0
0 0  0
0 0  0
0 0  0
0 0  0
0 0  0
0 0  0
0 0  0
0 0  0
0 0  0
0 0  0
0 0  0
0 0  0
0 0  0
0 0  0
0 0  0
0 0  0
0 0  0
0 0  0
0 0  0
0 0  0
0 0  0
0 0  0
0 0  0
0 0  0
0 0  0
0 0  0
0 0  0
0 0  0
0 0  0
0 0  0
0 0  0
0 0  0
0 0  0
0 0  0
0 0  0
0 0  0
0 0  0
0 0  0
0 0  0
0 0  0
0 0  0
0 0  0
0 0  0
0 0  0
0 0  0
0 0  0
0 0  0
0 0  0
0 0  0
0 0  0
0 0  0
0 0  0
0 0  0
0 0  0
0 0  0
0 0  0
0 0  0
0 0  0
0 0  0
0 0  0
0 0  0
0 0  0
0 0  0
0 0  0
0 0  0
0 0  0
0 0  0
0 0  0
0 0  0
0 0  0
0 0  0
0 0  0
0 0  0
0 0  0
0 0  0
0 0  0
0 0  0
0 0  0
0 0  0
0 0  0
0 0  0
0 0  0
0 0  0
0 0  0
0 0  0
0 0  0
0 0  0
0 0  0
0 0  0
0 0  0
0 0  0
0 0  0
0 0  0
0 0  0
0 0  0
0 0  0
0 0  0
0 0  0
0 0  0
0 0  0
0 0  0
0 0  0
0 0  0
0 0  0
0 0  0
0 0  0
0 0  0
0 0  0
0 0  0
0 0  0
0 0  0
0 0  0
0 0  0
0 0  0
0 0  0
0 0  0
0 0  0
0 0  0
0 0  0
0 0  0
0 0  0
0 0  0
0 0  0
0 0  0
0 0  0
0 0  0
0 0  0
0 0  0
0 0  0
0 0  0
0 0  0
0 0  0
0 0  0
0 0  0
0 0  0
0 0  0
0 0  0
0 0  0
0 0  0
0 0  0
0 0  0
0 0  0
0 0  0
0 0  0
0 0  0
0 0  0
0 0  0
0 0  0
0 0  0
0 0  0
0 0  0
0 0  0
0 0  0
0 0  0
0 0  0
0 0  0
0 0  0
0 0  0
0 0  0
0 0  0
0 0  0
0 0  0
0 0  0
0 0  0
0 0  0
0 0  0
0 0  0
0 0  0
0 0  0
0 0  0
0 0  0
0 0  0
0 0  0
0 0  0
0 0  0
0 0  0
0 0  0
0 0  0
0 0  0
0 0  0
0 0  0
0 0  0
0 0  0
0 0  0
0 0  0
0 0  0
0 0  0
0 0  0
0 0  0
0 0  0
0 0  0
0 0  0
0 0  0
0 0  0
0 0  0
0 0  0
0 0  0
0 0  0
0 0  0
0 0  0
0 0  0
0 0  0
0 0  0
0 0  0
0 0  0
0 0  0
0 0  0
0 0  0
0 0  0
0 0  0
0 0  0
0 0  0
0 0  0
0 0  0
0 0  0
0 0  0
0 0  0
0 0  0
0 0  0
0 0  0
0 0  0
0 0  0
0 0  0
0 0  0
0 0  0
0 0  0
0 0  0
0 0  0
0 0  0
0 0  0
0 0  0
0 0  0
0 0  0
0 0  0
0 0  0
0 0  0
0 0  0
0 0  0
0 0  0
0 0  0
0 0  0
0 0  0
0 0  0
0 0  0
0 0  0
0 0  0
0 0  0
0 0  0
0 0  0
0 0  0
0 0  0
0 0  0
0 0  0
0 0  0
0 0  0
0 0  0
0 0  0
0 0  0
0 0  0
0 0  0
0 0  0
0 0  0
0 0  0
0 0  0
0 0  0
0 0  0
0 0  0
0 0  0
0 0  0
0 0  0
0 0  0
0 0  0
0 0  0
0 0  0
0 0  0
0 0  0
0 0  0
0 0  0
0 0  0
0 0  0
0 0  0
0 0  0
0 0  0
0 0  0
0 0  0
0 0  0
0 0  0
0 0  0
0 0  0
0 0  0
0 0  0
0 0  0
0 0  0
0 0  0
0 0  0
0 0  0
0 0  0
0 0  0
0 0  0
0 0  0
0 0  0
0 0  0
0 0  0
0 0  0
0 0  0
0 0  0
0 0  0
0 0  0
0 0  0
0 0  0
0 0  0
0 0  0
0 0  0
0 0  0
0 0  0
0 0  0
0 0  0
0 0  0
0 0  0
0 0  0
0 0  0
0 0  0
0 0  0
0 0  0
0 0  0
0 0  0
0 0  0
0 0  0
0 0  0
0 0  0
0 0  0
0 0  0
0 0  0
0 0  0
0 0  0
0 0  0
0 0  0
0 0  0
0 0  0
0 0  0
0 0  0
0 0  0
0 0  0
0 0  0
0 0  0
0 0  0
0 0  0
0 0  0
0 0  0
0 0  0
0 0  0
0 0  0
0 0  0
0 0  0
0 0  0
0 0  0
0 0  0
0 0  0
0 0  0
0 0  0
0 0  0
0 0  0

SCALARS pressure double 1
LOOKUP_TABLE default
1.58367
1.58203
1.57378
1.55511
1.5388
1.51561
1.49016
1.46059
1.42676
1.38792
1.34222
1.28778
1.22043
1.13857
1.04552
0.949186
0.855648
0.77134
0.704788
0.655047
0.618589
0.590549
0.566595
0.542328
0.511029
0.471601
0.42816
0.399814
0.377993
0.354862
0.326203
0.307453
0.382259
0.636572
0
0
0
0
0
0
0
0
0
0
0
0
0
0
0
0
1.37054
1.36837
1.35546
1.34082
1.31841
1.29476
1.26661
1.23488
1.19796
1.15622
1.10932
1.05431
0.987191
0.904277
0.809771
0.714158
0.620248
0.533317
0.472272
0.429828
0.401066
0.379391
0.361984
0.342866
0.312962
0.269728
0.213071
0.190632
0.177206
0.158825
0.115479
0.00733602
-0.0308319
0
0
0
0
0
0
0
0
0
0
0
0
0
0
0
0
0
1.14682
1.14032
1.12725
1.10948
1.08321
1.05543
1.02415
0.988259
0.946407
0.898702
0.84971
0.796082
0.730456
0.645181
0.545973
0.454422
0.360072
0.256322
0.211577
0.183754
0.170654
0.160503
0.15438
0.14606
0.123768
0.0783408
-0.0326486
-0.0239659
-0.0183204
-0.0107091
-0.031531
0
0
0
0
0
0
0
0
0
0
0
0
0
0
0
0
0
0
0
0.912502
0.904337
0.889148
0.863748
0.832202
0.799353
0.764685
0.724553
0.67459
0.615132
0.565612
0.517843
0.459359
0.370302
0.255495
0.182571
0.0980165
-0.0805784
-0.067319
-0.0772263
-0.0618579
-0.0612746
-0.0533264
-0.0381707
-0.0447566
-0.0484781
0
0
0
0
0
0
0
0
0
0
0
0
0
0
0
0
0
0
0
0
0
0
0
0
0.67025
0.661797
0.641814
0.608049
0.56315
0.526988
0.491583
0.450171
0.388767
0.297093
0.258219
0.22578
0.192211
0.101072
-0.0769153
-0.0791648
-0.0684167
0
0
0
0
0
0
0
0
0
0
0
0
0
0
0
0
0
0
0
0
0
0
0
0
0
0
0
0
0
0
0
0
0
0.423097
0.415004
0.390758
0.345996
0.26733
0.23742
0.208734
0.178
0.112043
-0.0869937
-0.0625003
-0.0756103
-0.027486
-0.0797742
0
0
0
0
0
0
0
0
0
0
0
0
0
0
0
0
0
0
0
0
0
0
0
0
0
0
0
0
0
0
0
0
0
0
0
0
0.171265
0.168517
0.144766
0.10045
-0.0876481
-0.0597725
-0.0785624
-0.0664313
-0.0405073
0
0
0
0
0
0
0
0
0
0
0
0
0
0
0
0
0
0
0
0
0
0
0
0
0
0
0
0
0
0
0
0
0
0
0
0
0
0
0
0
0
-0.0833311
-0.0637192
-0.0877285
-0.00611711
0
0
0
0
0
0
0
0
0
0
0
0
0
0
0
0
0
0
0
0
0
0
0
0
0
0
0
0
0
0
0
0
0
0
0
0
0
0
0
0
0
0
0
0
0
0
0
0
0
0
0
0
0
0
0
0
0
0
0
0
0
0
0
0
0
0
0
0
0
0
0
0
0
0
0
0
0
0
0
0
0
0
0
0
0
0
0
0
0
0
0
0
0
0
0
0
0
0
0
0
0
0
0
0
0
0
0
0
0
0
0
0
0
0
0
0
0
0
0
0
0
0
0
0
0
0
0
0
0
0
0
0
0
0
0
0
0
0
0
0
0
0
0
0
0
0
0
0
0
0
0
0
0
0
0
0
0
0
0
0
0
0
0
0
0
0
0
0
0
0
0
0
0
0
0
0
0
0
0
0
0
0
0
0
0
0
0
0
0
0
0
0
0
0
0
0
0
0
0
0
0
0
0
0
0
0
0
0
0
0
0
0
0
0
0
0
0
0
0
0
0
0
0
0
0
0
0
0
0
0
0
0
0
0
0
0
0
0
0
0
0
0
0
0
0
0
0
0
0
0
0
0
0
0
0
0
0
0
0
0
0
0
0
0
0
0
0
0
0
0
0
0
0
0
0
0
0
0
0
0
0
0
0
0
0
0
0
0
0
0
0
0
0
0
0
0
0
0
0
0
0
0
0
0
0
0
0
0
0
0
0
0
0
0
0
0
0
0
0
0
0
0
0
0
0
0
0
0
0
0
0
0
0
0
0
0
0
0
0
0
0
0
0
0
0
0
0
0
0
0
0
0
0
0
0
0
0
0
0
0
0
0
0
0
0
0
0
0
0
0
0
0
0
0
0
0
0
0
0
0
0
0
0
0
0
0
0
0
0
0
0
0
0
0
0
0
0
0
0
0
0
0
0
0
0
0
0
0
0
0
0
0
0
0
0
0
0
0
0
0
0
0
0
0
0
0
0
0
0
0
0
0
0
0
0
0
0
0
0
0
0
0
0
0
0
0
0
0
0
0
0
0
0
0
0
0
0
0
0
0
0
0
0
0
0
0
0
0
0
0
0
0
0
0
0
0
0
0
0
0
0
0
0
0
0
0
0
0
0
0
0
0
0
0
0
0
0
0
0
0
0
0
0
0
0
0
0
0
0
0
0
0
0
0
0
0
0
0
0
0
0
0
0
0
0
0
0
0
0
0
0
0
0
0
0
0
0
0
0
0
0
0
0
0
0
0
0
0
0
0
0
0
0
0
0
0
0
0
0
0
0
0
0
0
0
0
0
0
0
0
0
0
0
0
0
0
0
0
0
0
0
0
0
0
0
0
0
0
0
0
0
0
0
0
0
0
0
0
0
0
0
0
0
0
0
0
0
0
0
0
0
0
0
0
0
0
0
0
0
0
0
0
0
0
0
0
0
0
0
0
0
0
0
0
0
0
0
0
0
0
0
0
0
0
0
0
SCALARS rhs double 1
LOOKUP_TABLE default
-5.73083
-5.66131
-5.61287
-5.63196
-5.68765
-5.70055
-5.76976
-5.81632
-5.9083
-6.01069
-6.10103
-6.19476
-6.232
-6.16581
-6.0028
-5.82569
-5.66888
-5.51903
-5.39918
-5.30449
-5.23322
-5.18159
-5.15831
-5.14064
-5.18466
-5.10817
-5.02822
-5.06281
-5.04849
-5.04136
-5.02064
-5.16405
-5.83968
0.68531
0
0
0
0
0
0
0
0
0
0
0
0
0
0
0
0
-0.495298
-0.47524
-0.485795
-0.491808
-0.497164
-0.541495
-0.570965
-0.645514
-0.698957
-0.776796
-0.8627
-0.933543
-0.975539
-0.909293
-0.720162
-0.569924
-0.447338
-0.314341
-0.246117
-0.169999
-0.144884
-0.0940879
-0.126169
-0.161573
-0.130353
-0.0882215
0.116043
0.0846024
0.00430311
0.0410861
-0.0266157
2.44428
1.40079
0
0
0
0
0
0
0
0
0
0
0
0
0
0
0
0
0
-0.468445
-0.421908
-0.445294
-0.47163
-0.467089
-0.501438
-0.525376
-0.579417
-0.648847
-0.696401
-0.717652
-0.793928
-0.840265
-0.740775
-0.471879
-0.363185
-0.277595
-0.0214011
-0.0242357
-0.0076555
0.0245258
0.0201541
-0.0321587
-0.054118
-0.0455578
-0.0332814
2.42301
1.6833
2.25878
2.44428
1.40079
0
0
0
0
0
0
0
0
0
0
0
0
0
0
0
0
0
0
0
-0.434808
-0.417483
-0.426531
-0.433162
-0.454694
-0.45536
-0.47085
-0.514407
-0.582843
-0.603562
-0.528862
-0.603732
-0.666704
-0.49447
0.00244258
-0.0357912
0.0452061
2.30307
23.1107
16.7269
12.4714
7.68949
4.63113
1.84322
2.25878
2.44428
0
0
0
0
0
0
0
0
0
0
0
0
0
0
0
0
0
0
0
0
0
0
0
0
-0.388685
-0.40196
-0.412674
-0.421419
-0.439163
-0.405096
-0.396927
-0.439563
-0.513023
-0.319628
-0.171272
-0.25432
-0.245587
0.0449856
39.2566
30.5806
18.6286
9.00999
0
0
0
0
0
0
0
0
0
0
0
0
0
0
0
0
0
0
0
0
0
0
0
0
0
0
0
0
0
0
0
0
-0.357829
-0.374189
-0.382733
-0.408551
-0.24828
-0.155959
-0.157502
-0.171553
-0.210334
0.610424
2.1109
1.92858
12.4974
35.3186
0
0
0
0
0
0
0
0
0
0
0
0
0
0
0
0
0
0
0
0
0
0
0
0
0
0
0
0
0
0
0
0
0
0
0
0
-0.145443
-0.146551
-0.176086
-0.101182
0.661148
1.46836
2.33123
2.21043
1.2227
1.47098
2.53607
14.3387
26.3021
0
0
0
0
0
0
0
0
0
0
0
0
0
0
0
0
0
0
0
0
0
0
0
0
0
0
0
0
0
0
0
0
0
0
0
0
0
1.72234
1.67642
1.62039
1.22694
0.49828
0.777197
0.916648
3.70181
7.89906
8.9678
11.6117
27.2717
0
0
0
0
0
0
0
0
0
0
0
0
0
0
0
0
0
0
0
0
0
0
0
0
0
0
0
0
0
0
0
0
0
0
0
0
0
0
2.45787
2.59584
4.01582
4.53242
6.43299
7.47839
9.23983
7.89527
5.98596
8.49533
41.2731
0
0
0
0
0
0
0
0
0
0
0
0
0
0
0
0
0
0
0
0
0
0
0
0
0
0
0
0
0
0
0
0
0
0
0
0
0
0
0
9.36633
9.33066
8.04142
9.25902
7.69325
7.78758
9.09454
10.208
11.1703
21.7759
3.2041
0
0
0
0
0
0
0
0
0
0
0
0
0
0
0
0
0
0
0
0
0
0
0
0
0
0
0
0
0
0
0
0
0
0
0
0
0
0
0
7.92952
10.0992
10.1145
8.86149
11.2589
12.4355
10.8064
8.57914
8.60392
43.2779
0
0
0
0
0
0
0
0
0
0
0
0
0
0
0
0
0
0
0
0
0
0
0
0
0
0
0
0
0
0
0
0
0
0
0
0
0
0
0
0
13.2058
10.8439
11.0393
13.0106
10.7272
10.2862
9.48307
9.57063
8.67562
33.2233
0
0
0
0
0
0
0
0
0
0
0
0
0
0
0
0
0
0
0
0
0
0
0
0
0
0
0
0
0
0
0
0
0
0
0
0
0
0
0
0
8.71388
9.82855
9.83715
7.65861
8.9401
7.02241
6.34758
6.44313
5.90605
26.1906
0
0
0
0
0
0
0
0
0
0
0
0
0
0
0
0
0
0
0
0
0
0
0
0
0
0
0
0
0
0
0
0
0
0
0
0
0
0
0
0
7.061
5.55892
5.71513
6.83869
5.56628
5.6724
5.42452
5.43401
4.26976
17.1298
0
0
0
0
0
0
0
0
0
0
0
0
0
0
0
0
0
0
0
0
0
0
0
0
0
0
0
0
0
0
0
0
0
0
0
0
0
0
0
0
6.55202
6.55536
6.55982
5.31204
5.40986
6.30896
5.08555
5.09432
5.2091
10.3371
0
0
0
0
0
0
0
0
0
0
0
0
0
0
0
0
0
0
0
0
0
0
0
0
0
0
0
0
0
0
0
0
0
0
0
0
0
0
0
0
5.52783
5.53996
5.54196
5.54121
5.54439
4.52522
5.16545
5.22779
16.4546
0
0
0
0
0
0
0
0
0
0
0
0
0
0
0
0
0
0
0
0
0
0
0
0
0
0
0
0
0
0
0
0
0
0
0
0
0
0
0
0
0
3.60674
3.66202
3.98033
3.98143
3.98244
3.98396
3.23505
3.31189
11.5415
0
0
0
0
0
0
0
0
0
0
0
0
0
0
0
0
0
0
0
0
0
0
0
0
0
0
0
0
0
0
0
0
0
0
0
0
0
0
0
0
0
6.01719
6.36025
5.75447
5.75462
5.75506
5.75536
5.75588
5.76119
8.30564
0
0
0
0
0
0
0
0
0
0
0
0
0
0
0
0
0
0
0
0
0
0
0
0
0
0
0
0
0
0
0
0
0
0
0
0
0
0
0
0
0
3.29611
2.74112
2.74112
2.74112
2.74112
2.74112
2.74112
2.74112
2.74112
0
0
0
0
0
0
0
0
0
0
0
0
0
0
0
0
0
0
0
0
0
0
0
0
0
0
0
0
0
0
0
0
0
0
0
0
0
0
0
0
0
0
0
0
0
0
0
0
0
0
0
0
0
0
0
0
0
0
0
0
0
0
0
0
0
0
0
0
0
0
0
0
0
0
0
0
0
0
0
0
0
0
0
0
0
0
0
0
0
0
0
