# vtk DataFile Version 4.0
Nusif Fluid VTK output
ASCII
DATASET STRUCTURED_POINTS
DIMENSIONS 50 20 1
ORIGIN 0 0 0 
SPACING 0.2 0.2 1
POINT_DATA 1000 

VECTORS velocity double
0.052927 -0.0580833  0
0.159667 -0.0588155  0
0.268862 -0.0603622  0
0.382008 -0.0627366  0
0.50083 -0.0659168  0
0.626104 -0.0709604  0
0.761066 -0.074349  0
0.906682 -0.0799886  0
1.06125 -0.0849993  0
1.22401 -0.0880316  0
1.38981 -0.0875446  0
1.54866 -0.0810679  0
1.68687 -0.067044  0
1.79077 -0.0467543  0
1.85022 -0.0225536  0
1.86337 -0.00041701  0
1.85888 0  0
0.929438 0  0
0 0  0
0 0  0
0 0  0
0 0  0
0 0  0
0 0  0
0 0  0
0 0  0
0 0  0
0 0  0
0 0  0
0 0  0
0 0  0
0 0  0
0 0  0
0 0  0
0 0  0
0 0  0
0 0  0
0 0  0
0 0  0
0 0  0
0 0  0
0 0  0
0 0  0
0 0  0
0 0  0
0 0  0
0 0  0
0 0  0
0 0  0
0 0  0
0.0521355 -0.173303  0
0.157242 -0.175504  0
0.264697 -0.180118  0
0.376007 -0.187161  0
0.491761 -0.19749  0
0.616012 -0.209253  0
0.74877 -0.222882  0
0.88972 -0.238161  0
1.04139 -0.252537  0
1.20026 -0.261887  0
1.36083 -0.259969  0
1.5131 -0.239356  0
1.64214 -0.19558  0
1.73486 -0.134486  0
1.78541 -0.0645  0
1.79987 -0.00083402  0
1.82937 -0.00041701  0
0.929438 0  0
0 0  0
0 0  0
0 0  0
0 0  0
0 0  0
0 0  0
0 0  0
0 0  0
0 0  0
0 0  0
0 0  0
0 0  0
0 0  0
0 0  0
0 0  0
0 0  0
0 0  0
0 0  0
0 0  0
0 0  0
0 0  0
0 0  0
0 0  0
0 0  0
0 0  0
0 0  0
0 0  0
0 0  0
0 0  0
0 0  0
0 0  0
0 0  0
0.0505941 -0.286003  0
0.152546 -0.289634  0
0.256694 -0.297191  0
0.363625 -0.309168  0
0.476659 -0.325063  0
0.596397 -0.343698  0
0.723379 -0.367157  0
0.859698 -0.391749  0
1.0045 -0.414562  0
1.15624 -0.429433  0
1.30826 -0.424712  0
1.44822 -0.386587  0
1.55908 -0.30781  0
1.62783 -0.203303  0
1.65077 -0.0838929  0
1.72532 -0.0423634  0
0.899934 -0.00041701  0
0 0  0
0 0  0
0 0  0
0 0  0
0 0  0
0 0  0
0 0  0
0 0  0
0 0  0
0 0  0
0 0  0
0 0  0
0 0  0
0 0  0
0 0  0
0 0  0
0 0  0
0 0  0
0 0  0
0 0  0
0 0  0
0 0  0
0 0  0
0 0  0
0 0  0
0 0  0
0 0  0
0 0  0
0 0  0
0 0  0
0 0  0
0 0  0
0 0  0
0.0483421 -0.394845  0
0.145708 -0.399807  0
0.244589 -0.41026  0
0.346885 -0.426477  0
0.454457 -0.446732  0
0.567879 -0.473696  0
0.688032 -0.504295  0
0.816577 -0.538132  0
0.953258 -0.569344  0
1.09516 -0.588087  0
1.23479 -0.577252  0
1.35446 -0.513535  0
1.4349 -0.39194  0
1.46338 -0.231143  0
1.55708 -0.157518  0
0.825387 -0.0419464  0
0 0  0
0 0  0
0 0  0
0 0  0
0 0  0
0 0  0
0 0  0
0 0  0
0 0  0
0 0  0
0 0  0
0 0  0
0 0  0
0 0  0
0 0  0
0 0  0
0 0  0
0 0  0
0 0  0
0 0  0
0 0  0
0 0  0
0 0  0
0 0  0
0 0  0
0 0  0
0 0  0
0 0  0
0 0  0
0 0  0
0 0  0
0 0  0
0 0  0
0 0  0
0.0454461 -0.498471  0
0.136743 -0.504677  0
0.229385 -0.517789  0
0.325727 -0.536814  0
0.426194 -0.562534  0
0.531595 -0.595284  0
0.643351 -0.634177  0
0.762101 -0.675878  0
0.888605 -0.71462  0
1.01979 -0.736064  0
1.14553 -0.714301  0
1.2327 -0.602974  0
1.26029 -0.425334  0
1.36184 -0.328239  0
0.731692 -0.115572  0
0 0  0
0 0  0
0 0  0
0 0  0
0 0  0
0 0  0
0 0  0
0 0  0
0 0  0
0 0  0
0 0  0
0 0  0
0 0  0
0 0  0
0 0  0
0 0  0
0 0  0
0 0  0
0 0  0
0 0  0
0 0  0
0 0  0
0 0  0
0 0  0
0 0  0
0 0  0
0 0  0
0 0  0
0 0  0
0 0  0
0 0  0
0 0  0
0 0  0
0 0  0
0 0  0
0.0419397 -0.595673  0
0.125985 -0.603038  0
0.211797 -0.617835  0
0.300646 -0.639637  0
0.392471 -0.670434  0
0.488169 -0.708836  0
0.589571 -0.754278  0
0.697665 -0.80307  0
0.812408 -0.848354  0
0.932549 -0.873144  0
1.05414 -0.844113  0
1.17412 -0.694971  0
1.24695 -0.444936  0
0.630145 -0.212667  0
0 0  0
0 0  0
0 0  0
0 0  0
0 0  0
0 0  0
0 0  0
0 0  0
0 0  0
0 0  0
0 0  0
0 0  0
0 0  0
0 0  0
0 0  0
0 0  0
0 0  0
0 0  0
0 0  0
0 0  0
0 0  0
0 0  0
0 0  0
0 0  0
0 0  0
0 0  0
0 0  0
0 0  0
0 0  0
0 0  0
0 0  0
0 0  0
0 0  0
0 0  0
0 0  0
0 0  0
0.0378865 -0.685435  0
0.114193 -0.693327  0
0.192164 -0.709679  0
0.271622 -0.734768  0
0.353297 -0.769463  0
0.439037 -0.812106  0
0.529339 -0.86248  0
0.624242 -0.917238  0
0.723588 -0.967822  0
0.823955 -0.993658  0
0.908618 -0.949519  0
0.94369 -0.754467  0
0.471845 -0.609502  0
0 0  0
0 0  0
0 0  0
0 0  0
0 0  0
0 0  0
0 0  0
0 0  0
0 0  0
0 0  0
0 0  0
0 0  0
0 0  0
0 0  0
0 0  0
0 0  0
0 0  0
0 0  0
0 0  0
0 0  0
0 0  0
0 0  0
0 0  0
0 0  0
0 0  0
0 0  0
0 0  0
0 0  0
0 0  0
0 0  0
0 0  0
0 0  0
0 0  0
0 0  0
0 0  0
0 0  0
0 0  0
0.0338774 -0.766469  0
0.101411 -0.77536  0
0.169793 -0.793161  0
0.239374 -0.820892  0
0.311325 -0.857629  0
0.38596 -0.903563  0
0.46315 -0.957873  0
0.543923 -1.017  0
0.626867 -1.07025  0
0.706644 -1.09103  0
0.785562 -1.03045  0
0.885109 -0.807735  0
0.471845 -0.377233  0
0 0  0
0 0  0
0 0  0
0 0  0
0 0  0
0 0  0
0 0  0
0 0  0
0 0  0
0 0  0
0 0  0
0 0  0
0 0  0
0 0  0
0 0  0
0 0  0
0 0  0
0 0  0
0 0  0
0 0  0
0 0  0
0 0  0
0 0  0
0 0  0
0 0  0
0 0  0
0 0  0
0 0  0
0 0  0
0 0  0
0 0  0
0 0  0
0 0  0
0 0  0
0 0  0
0 0  0
0 0  0
0.0288696 -0.838854  0
0.0872712 -0.84841  0
0.146188 -0.867283  0
0.205795 -0.896277  0
0.266895 -0.934463  0
0.329443 -0.983064  0
0.393707 -1.03988  0
0.459758 -1.10145  0
0.526806 -1.15543  0
0.588256 -1.16669  0
0.616115 -1.07142  0
0.308058 -0.96621  0
0 0  0
0 0  0
0 0  0
0 0  0
0 0  0
0 0  0
0 0  0
0 0  0
0 0  0
0 0  0
0 0  0
0 0  0
0 0  0
0 0  0
0 0  0
0 0  0
0 0  0
0 0  0
0 0  0
0 0  0
0 0  0
0 0  0
0 0  0
0 0  0
0 0  0
0 0  0
0 0  0
0 0  0
0 0  0
0 0  0
0 0  0
0 0  0
0 0  0
0 0  0
0 0  0
0 0  0
0 0  0
0 0  0
0.0242744 -0.902226  0
0.0729685 -0.911746  0
0.121827 -0.931353  0
0.171317 -0.960851  0
0.221382 -1.00042  0
0.271727 -1.04979  0
0.322712 -1.10792  0
0.374505 -1.17095  0
0.428744 -1.22692  0
0.494818 -1.23742  0
0.574454 -1.09684  0
0.308058 -0.535708  0
0 0  0
0 0  0
0 0  0
0 0  0
0 0  0
0 0  0
0 0  0
0 0  0
0 0  0
0 0  0
0 0  0
0 0  0
0 0  0
0 0  0
0 0  0
0 0  0
0 0  0
0 0  0
0 0  0
0 0  0
0 0  0
0 0  0
0 0  0
0 0  0
0 0  0
0 0  0
0 0  0
0 0  0
0 0  0
0 0  0
0 0  0
0 0  0
0 0  0
0 0  0
0 0  0
0 0  0
0 0  0
0 0  0
0.0194923 -0.955833  0
0.0587026 -0.965654  0
0.0979665 -0.985415  0
0.137276 -1.01513  0
0.176594 -1.05498  0
0.215194 -1.10406  0
0.252676 -1.16176  0
0.288672 -1.2245  0
0.322247 -1.28087  0
0.358957 -1.29609  0
0.189826 -1.15893  0
0 0  0
0 0  0
0 0  0
0 0  0
0 0  0
0 0  0
0 0  0
0 0  0
0 0  0
0 0  0
0 0  0
0 0  0
0 0  0
0 0  0
0 0  0
0 0  0
0 0  0
0 0  0
0 0  0
0 0  0
0 0  0
0 0  0
0 0  0
0 0  0
0 0  0
0 0  0
0 0  0
0 0  0
0 0  0
0 0  0
0 0  0
0 0  0
0 0  0
0 0  0
0 0  0
0 0  0
0 0  0
0 0  0
0 0  0
0.0150916 -1.00044  0
0.0454477 -1.01018  0
0.0758247 -1.02998  0
0.105988 -1.05976  0
0.135664 -1.09899  0
0.163735 -1.14644  0
0.188714 -1.20155  0
0.210431 -1.2621  0
0.228285 -1.3144  0
0.247217 -1.32804  0
0.129238 -1.21784  0
0 0  0
0 0  0
0 0  0
0 0  0
0 0  0
0 0  0
0 0  0
0 0  0
0 0  0
0 0  0
0 0  0
0 0  0
0 0  0
0 0  0
0 0  0
0 0  0
0 0  0
0 0  0
0 0  0
0 0  0
0 0  0
0 0  0
0 0  0
0 0  0
0 0  0
0 0  0
0 0  0
0 0  0
0 0  0
0 0  0
0 0  0
0 0  0
0 0  0
0 0  0
0 0  0
0 0  0
0 0  0
0 0  0
0 0  0
0.0116358 -1.03712  0
0.0349994 -1.04673  0
0.0582599 -1.06659  0
0.0812574 -1.09611  0
0.103769 -1.13448  0
0.124485 -1.17943  0
0.138694 -1.22745  0
0.147323 -1.28621  0
0.153175 -1.33367  0
0.15709 -1.34145  0
0.0796205 -1.27162  0
0 0  0
0 0  0
0 0  0
0 0  0
0 0  0
0 0  0
0 0  0
0 0  0
0 0  0
0 0  0
0 0  0
0 0  0
0 0  0
0 0  0
0 0  0
0 0  0
0 0  0
0 0  0
0 0  0
0 0  0
0 0  0
0 0  0
0 0  0
0 0  0
0 0  0
0 0  0
0 0  0
0 0  0
0 0  0
0 0  0
0 0  0
0 0  0
0 0  0
0 0  0
0 0  0
0 0  0
0 0  0
0 0  0
0 0  0
0.0101832 -1.06861  0
0.0302596 -1.0783  0
0.050062 -1.0979  0
0.0695494 -1.12703  0
0.0882734 -1.16447  0
0.105255 -1.2068  0
0.116899 -1.24072  0
0.120583 -1.29509  0
0.119637 -1.33953  0
0.118814 -1.34361  0
0.0594069 -1.32339  0
0 0  0
0 0  0
0 0  0
0 0  0
0 0  0
0 0  0
0 0  0
0 0  0
0 0  0
0 0  0
0 0  0
0 0  0
0 0  0
0 0  0
0 0  0
0 0  0
0 0  0
0 0  0
0 0  0
0 0  0
0 0  0
0 0  0
0 0  0
0 0  0
0 0  0
0 0  0
0 0  0
0 0  0
0 0  0
0 0  0
0 0  0
0 0  0
0 0  0
0 0  0
0 0  0
0 0  0
0 0  0
0 0  0
0 0  0
0.0115088 -1.09503  0
0.0340904 -1.10445  0
0.0563362 -1.12376  0
0.0759594 -1.15005  0
0.0916153 -1.18571  0
0.098821 -1.21956  0
0.134979 -1.23205  0
0.167672 -0.647481  0
0.143958 -0.669355  0
0.121262 -0.671803  0
0.0594069 -0.671803  0
0 0  0
0 0  0
0 0  0
0 0  0
0 0  0
0 0  0
0 0  0
0 0  0
0 0  0
0 0  0
0 0  0
0 0  0
0 0  0
0 0  0
0 0  0
0 0  0
0 0  0
0 0  0
0 0  0
0 0  0
0 0  0
0 0  0
0 0  0
0 0  0
0 0  0
0 0  0
0 0  0
0 0  0
0 0  0
0 0  0
0 0  0
0 0  0
0 0  0
0 0  0
0 0  0
0 0  0
0 0  0
0 0  0
0 0  0
0.0159991 -0.553271  0
0.0482841 -0.557762  0
0.077824 -0.567465  0
0.104954 -0.579249  0
0.122147 -0.59646  0
0.112142 -0.609781  0
0.0494105 -0.609781  0
0 0  0
0 0  0
0 0  0
0 0  0
0 0  0
0 0  0
0 0  0
0 0  0
0 0  0
0 0  0
0 0  0
0 0  0
0 0  0
0 0  0
0 0  0
0 0  0
0 0  0
0 0  0
0 0  0
0 0  0
0 0  0
0 0  0
0 0  0
0 0  0
0 0  0
0 0  0
0 0  0
0 0  0
0 0  0
0 0  0
0 0  0
0 0  0
0 0  0
0 0  0
0 0  0
0 0  0
0 0  0
0 0  0
0 0  0
0 0  0
0 0  0
0 0  0
0 0  0
0 0  0
0 0  0
0 0  0
0 0  0
0 0  0
0 0  0
0 0  0
0 0  0
0 0  0
0 0  0
0 0  0
0 0  0
0 0  0
0 0  0
0 0  0
0 0  0
0 0  0
0 0  0
0 0  0
0 0  0
0 0  0
0 0  0
0 0  0
0 0  0
0 0  0
0 0  0
0 0  0
0 0  0
0 0  0
0 0  0
0 0  0
0 0  0
0 0  0
0 0  0
0 0  0
0 0  0
0 0  0
0 0  0
0 0  0
0 0  0
0 0  0
0 0  0
0 0  0
0 0  0
0 0  0
0 0  0
0 0  0
0 0  0
0 0  0
0 0  0
0 0  0
0 0  0
0 0  0
0 0  0
0 0  0
0 0  0
0 0  0
0 0  0
0 0  0
0 0  0
0 0  0
0 0  0
0 0  0
0 0  0
0 0  0
0 0  0
0 0  0
0 0  0
0 0  0
0 0  0
0 0  0
0 0  0
0 0  0
0 0  0
0 0  0
0 0  0
0 0  0
0 0  0
0 0  0
0 0  0
0 0  0
0 0  0
0 0  0
0 0  0
0 0  0
0 0  0
0 0  0
0 0  0
0 0  0
0 0  0
0 0  0
0 0  0
0 0  0
0 0  0
0 0  0
0 0  0
0 0  0
0 0  0
0 0  0
0 0  0
0 0  0
0 0  0
0 0  0
0 0  0
0 0  0
0 0  0
0 0  0
0 0  0
0 0  0
0 0  0
0 0  0
0 0  0
0 0  0
0 0  0
0 0  0
0 0  0
0 0  0
0 0  0
0 0  0
0 0  0
0 0  0
0 0  0
0 0  0
0 0  0
0 0  0
0 0  0
0 0  0
0 0  0
0 0  0
0 0  0
0 0  0
0 0  0
0 0  0
0 0  0
0 0  0
0 0  0
0 0  0
0 0  0
0 0  0
0 0  0
0 0  0
0 0  0
0 0  0
0 0  0
0 0  0
0 0  0
0 0  0
0 0  0
0 0  0
0 0  0
0 0  0
0 0  0
0 0  0
0 0  0
0 0  0
0 0  0
0 0  0
0 0  0
0 0  0
0 0  0
0 0  0
0 0  0
0 0  0
0 0  0
0 0  0
0 0  0
0 0  0
0 0  0
0 0  0
0 0  0
0 0  0
0 0  0
0 0  0
0 0  0
0 0  0
0 0  0
0 0  0
0 0  0
0 0  0
0 0  0
0 0  0
0 0  0
0 0  0
0 0  0
0 0  0
0 0  0
0 0  0
0 0  0
0 0  0
0 0  0
0 0  0
0 0  0
0 0  0
0 0  0
0 0  0
0 0  0
0 0  0
0 0  0
0 0  0
0 0  0

SCALARS pressure double 1
LOOKUP_TABLE default
2.92122
2.90242
2.86498
2.80856
2.73158
2.63097
2.51257
2.35484
2.16398
1.93691
1.67234
1.37596
1.06402
0.757695
0.475366
0.223786
-0.0177929
0
0
0
0
0
0
0
0
0
0
0
0
0
0
0
0
0
0
0
0
0
0
0
0
0
0
0
0
0
0
0
0
0
2.70653
2.68759
2.64993
2.59314
2.51509
2.42339
2.2897
2.13456
1.94213
1.7087
1.43831
1.13803
0.824506
0.520854
0.244838
0.0113855
0
0
0
0
0
0
0
0
0
0
0
0
0
0
0
0
0
0
0
0
0
0
0
0
0
0
0
0
0
0
0
0
0
0
2.48502
2.46593
2.42801
2.37055
2.29968
2.19416
2.06719
1.90401
1.7054
1.46569
1.18444
0.874106
0.55804
0.260061
-0.0148463
0
0
0
0
0
0
0
0
0
0
0
0
0
0
0
0
0
0
0
0
0
0
0
0
0
0
0
0
0
0
0
0
0
0
0
2.25882
2.2396
2.20146
2.14819
2.07146
1.9677
1.83441
1.66984
1.46248
1.21266
0.918065
0.593417
0.279886
0.00529634
0
0
0
0
0
0
0
0
0
0
0
0
0
0
0
0
0
0
0
0
0
0
0
0
0
0
0
0
0
0
0
0
0
0
0
0
2.02997
2.01074
1.97444
1.92209
1.84114
1.73791
1.60163
1.43363
1.22348
0.964009
0.652649
0.303757
0.00878531
0
0
0
0
0
0
0
0
0
0
0
0
0
0
0
0
0
0
0
0
0
0
0
0
0
0
0
0
0
0
0
0
0
0
0
0
0
1.80073
1.78211
1.74849
1.69245
1.61188
1.50759
1.37645
1.20852
0.996962
0.733557
0.409409
0
0
0
0
0
0
0
0
0
0
0
0
0
0
0
0
0
0
0
0
0
0
0
0
0
0
0
0
0
0
0
0
0
0
0
0
0
0
0
1.57339
1.55637
1.52128
1.46342
1.38846
1.28993
1.16066
0.994419
0.788071
0.537832
0.260216
0.112163
0
0
0
0
0
0
0
0
0
0
0
0
0
0
0
0
0
0
0
0
0
0
0
0
0
0
0
0
0
0
0
0
0
0
0
0
0
0
1.35028
1.33097
1.29781
1.24463
1.17634
1.07835
0.955475
0.796501
0.595977
0.347379
0.0462956
0
0
0
0
0
0
0
0
0
0
0
0
0
0
0
0
0
0
0
0
0
0
0
0
0
0
0
0
0
0
0
0
0
0
0
0
0
0
0
1.12874
1.11478
1.08241
1.03568
0.969425
0.880844
0.765732
0.6181
0.431212
0.202092
-0.0258979
0
0
0
0
0
0
0
0
0
0
0
0
0
0
0
0
0
0
0
0
0
0
0
0
0
0
0
0
0
0
0
0
0
0
0
0
0
0
0
0.917446
0.903631
0.875743
0.834397
0.774058
0.695131
0.593012
0.46195
0.293698
0.0746958
0
0
0
0
0
0
0
0
0
0
0
0
0
0
0
0
0
0
0
0
0
0
0
0
0
0
0
0
0
0
0
0
0
0
0
0
0
0
0
0
0.713071
0.701941
0.677802
0.641786
0.590285
0.522104
0.43563
0.328786
0.196323
0.0362411
0
0
0
0
0
0
0
0
0
0
0
0
0
0
0
0
0
0
0
0
0
0
0
0
0
0
0
0
0
0
0
0
0
0
0
0
0
0
0
0
0.516584
0.507899
0.488609
0.45886
0.416589
0.359626
0.288714
0.21058
0.120645
0.0212948
0
0
0
0
0
0
0
0
0
0
0
0
0
0
0
0
0
0
0
0
0
0
0
0
0
0
0
0
0
0
0
0
0
0
0
0
0
0
0
0
0.327312
0.320945
0.306889
0.285435
0.253111
0.205614
0.141829
0.0966736
0.0524433
0.0119001
0
0
0
0
0
0
0
0
0
0
0
0
0
0
0
0
0
0
0
0
0
0
0
0
0
0
0
0
0
0
0
0
0
0
0
0
0
0
0
0
0.143295
0.13905
0.132786
0.120567
0.102073
0.0648217
-0.00792703
-0.00215796
0.0023919
-0.0310838
0
0
0
0
0
0
0
0
0
0
0
0
0
0
0
0
0
0
0
0
0
0
0
0
0
0
0
0
0
0
0
0
0
0
0
0
0
0
0
0
-0.020951
-0.0206823
-0.0189764
-0.019217
-0.0119396
-0.0176666
0
0
0
0
0
0
0
0
0
0
0
0
0
0
0
0
0
0
0
0
0
0
0
0
0
0
0
0
0
0
0
0
0
0
0
0
0
0
0
0
0
0
0
0
0
0
0
0
0
0
0
0
0
0
0
0
0
0
0
0
0
0
0
0
0
0
0
0
0
0
0
0
0
0
0
0
0
0
0
0
0
0
0
0
0
0
0
0
0
0
0
0
0
0
0
0
0
0
0
0
0
0
0
0
0
0
0
0
0
0
0
0
0
0
0
0
0
0
0
0
0
0
0
0
0
0
0
0
0
0
0
0
0
0
0
0
0
0
0
0
0
0
0
0
0
0
0
0
0
0
0
0
0
0
0
0
0
0
0
0
0
0
0
0
0
0
0
0
0
0
0
0
0
0
0
0
0
0
0
0
0
0
0
0
0
0
0
0
0
0
0
0
0
0
0
0
0
0
0
0
0
0
0
0
0
0
0
0
0
0
0
0
0
0
0
0
0
0
0
0
0
0
0
0
0
0
0
0
0
0
0
0
0
0
0
0
0
0
0
0
0
0
0
0
0
0
0
0
0
0
0
0
0
0
0
0
0
0
0
0
0
0
0
0
0
0
0
0
0
0
0
0
0
0
0
0
0
0
0
0
0
0
0
0
0
0
0
0
0
0
0
0
0
0
SCALARS rhs double 1
LOOKUP_TABLE default
-5.89742
-5.85775
-5.86651
-5.91411
-5.98792
-6.09158
-6.22638
-6.38614
-6.54735
-6.65556
-6.61933
-6.34677
-5.85573
-5.32864
-4.99216
-5.05938
2.44489
0
0
0
0
0
0
0
0
0
0
0
0
0
0
0
0
0
0
0
0
0
0
0
0
0
0
0
0
0
0
0
0
0
-0.665227
-0.635419
-0.648551
-0.696671
-0.767492
-0.863621
-0.985545
-1.12669
-1.26375
-1.34255
-1.27034
-0.952913
-0.413927
0.0984505
0.3314
4.89662
0
0
0
0
0
0
0
0
0
0
0
0
0
0
0
0
0
0
0
0
0
0
0
0
0
0
0
0
0
0
0
0
0
0
-0.607656
-0.583194
-0.597497
-0.644681
-0.713338
-0.805711
-0.921529
-1.05249
-1.17054
-1.20919
-1.05151
-0.570279
0.153737
0.733829
3.68911
0
0
0
0
0
0
0
0
0
0
0
0
0
0
0
0
0
0
0
0
0
0
0
0
0
0
0
0
0
0
0
0
0
0
0
-0.551547
-0.530152
-0.544327
-0.589044
-0.653873
-0.740722
-0.848444
-0.966261
-1.05827
-1.03698
-0.738603
0.0375277
1.15148
3.68911
0
0
0
0
0
0
0
0
0
0
0
0
0
0
0
0
0
0
0
0
0
0
0
0
0
0
0
0
0
0
0
0
0
0
0
0
-0.486949
-0.467645
-0.481595
-0.523696
-0.584492
-0.665516
-0.76486
-0.868875
-0.931273
-0.834581
-0.351937
0.996245
3.68911
0
0
0
0
0
0
0
0
0
0
0
0
0
0
0
0
0
0
0
0
0
0
0
0
0
0
0
0
0
0
0
0
0
0
0
0
0
-0.417305
-0.399473
-0.413168
-0.452445
-0.508989
-0.583997
-0.675019
-0.766605
-0.805638
-0.653764
0.210433
7.01517
0
0
0
0
0
0
0
0
0
0
0
0
0
0
0
0
0
0
0
0
0
0
0
0
0
0
0
0
0
0
0
0
0
0
0
0
0
0
-0.346067
-0.329382
-0.342776
-0.379081
-0.431156
-0.499723
-0.581776
-0.661352
-0.682933
-0.545235
1.62667
1.22912
0
0
0
0
0
0
0
0
0
0
0
0
0
0
0
0
0
0
0
0
0
0
0
0
0
0
0
0
0
0
0
0
0
0
0
0
0
0
-0.27647
-0.260876
-0.273895
-0.307269
-0.354724
-0.416268
-0.487403
-0.54661
-0.511359
-0.189943
10.1432
0
0
0
0
0
0
0
0
0
0
0
0
0
0
0
0
0
0
0
0
0
0
0
0
0
0
0
0
0
0
0
0
0
0
0
0
0
0
0
-0.211256
-0.197061
-0.20972
-0.240266
-0.283181
-0.337798
-0.39858
-0.440274
-0.364361
0.479683
4.89662
0
0
0
0
0
0
0
0
0
0
0
0
0
0
0
0
0
0
0
0
0
0
0
0
0
0
0
0
0
0
0
0
0
0
0
0
0
0
0
-0.152678
-0.140489
-0.152795
-0.18055
-0.218928
-0.266856
-0.3197
-0.357027
-0.266916
19.8159
0
0
0
0
0
0
0
0
0
0
0
0
0
0
0
0
0
0
0
0
0
0
0
0
0
0
0
0
0
0
0
0
0
0
0
0
0
0
0
0
-0.102535
-0.0930505
-0.104788
-0.129456
-0.162532
-0.20278
-0.246339
-0.270231
-0.147617
19.9664
0
0
0
0
0
0
0
0
0
0
0
0
0
0
0
0
0
0
0
0
0
0
0
0
0
0
0
0
0
0
0
0
0
0
0
0
0
0
0
0
-0.0621428
-0.0558961
-0.0662953
-0.0866172
-0.112334
-0.143267
-0.176784
-0.18903
-0.0502334
19.6941
0
0
0
0
0
0
0
0
0
0
0
0
0
0
0
0
0
0
0
0
0
0
0
0
0
0
0
0
0
0
0
0
0
0
0
0
0
0
0
0
-0.032514
-0.0294146
-0.0361813
-0.0488066
-0.0638912
-0.0819723
0.391965
0.400529
0.545576
18.3477
0
0
0
0
0
0
0
0
0
0
0
0
0
0
0
0
0
0
0
0
0
0
0
0
0
0
0
0
0
0
0
0
0
0
0
0
0
0
0
0
0.433597
0.437323
0.443838
0.451539
0.46181
0.567932
1.66586
1.67535
1.8033
14.6633
0
0
0
0
0
0
0
0
0
0
0
0
0
0
0
0
0
0
0
0
0
0
0
0
0
0
0
0
0
0
0
0
0
0
0
0
0
0
0
0
5.2986
5.30194
5.3064
5.31204
5.40986
6.30896
5.08555
5.09432
5.2091
10.3371
0
0
0
0
0
0
0
0
0
0
0
0
0
0
0
0
0
0
0
0
0
0
0
0
0
0
0
0
0
0
0
0
0
0
0
0
0
0
0
0
5.52783
5.53996
5.54196
5.54121
5.54439
4.52522
5.16545
5.22779
16.4546
0
0
0
0
0
0
0
0
0
0
0
0
0
0
0
0
0
0
0
0
0
0
0
0
0
0
0
0
0
0
0
0
0
0
0
0
0
0
0
0
0
3.60674
3.66202
3.98033
3.98143
3.98244
3.98396
3.23505
3.31189
11.5415
0
0
0
0
0
0
0
0
0
0
0
0
0
0
0
0
0
0
0
0
0
0
0
0
0
0
0
0
0
0
0
0
0
0
0
0
0
0
0
0
0
6.01719
6.36025
5.75447
5.75462
5.75506
5.75536
5.75588
5.76119
8.30564
0
0
0
0
0
0
0
0
0
0
0
0
0
0
0
0
0
0
0
0
0
0
0
0
0
0
0
0
0
0
0
0
0
0
0
0
0
0
0
0
0
3.29611
2.74112
2.74112
2.74112
2.74112
2.74112
2.74112
2.74112
2.74112
0
0
0
0
0
0
0
0
0
0
0
0
0
0
0
0
0
0
0
0
0
0
0
0
0
0
0
0
0
0
0
0
0
0
0
0
0
0
0
0
0
0
0
0
0
0
0
0
0
0
0
0
0
0
0
0
0
0
0
0
0
0
0
0
0
0
0
0
0
0
0
0
0
0
0
0
0
0
0
0
0
0
0
0
0
0
0
0
0
0
0
