# vtk DataFile Version 4.0
Nusif Fluid VTK output
ASCII
DATASET STRUCTURED_POINTS
DIMENSIONS 50 20 1
ORIGIN 0 0 0 
SPACING 0.2 0.2 1
POINT_DATA 1000 

VECTORS velocity double
0.0418496 -0.0419189  0
0.126072 -0.0419134  0
0.211294 -0.0425476  0
0.297577 -0.0434068  0
0.385438 -0.0442599  0
0.475344 -0.0452875  0
0.567401 -0.046474  0
0.66206 -0.0479852  0
0.760118 -0.049903  0
0.862139 -0.0519861  0
0.968034 -0.0538345  0
1.07723 -0.0553366  0
1.18987 -0.0573141  0
1.30674 -0.059576  0
1.42652 -0.0602483  0
1.5438 -0.0570744  0
1.65023 -0.049421  0
1.74239 -0.0428187  0
1.8231 -0.03797  0
1.89537 -0.0344148  0
1.96167 -0.0319673  0
2.02346 -0.0299202  0
2.08124 -0.0279869  0
2.13556 -0.0264796  0
2.18791 -0.026068  0
2.24096 -0.0272742  0
2.29692 -0.0287697  0
2.35025 -0.0247243  0
2.3893 -0.0144017  0
2.41255 -0.0089104  0
2.42968 -0.00847523  0
2.4504 -0.0123042  0
2.47782 -0.0152023  0
2.49506 -0.00217207  0
2.47629 0.0208227  0
2.4313 0.0240482  0
2.40719 0  0
1.20359 0  0
0 0  0
0 0  0
0 0  0
0 0  0
0 0  0
0 0  0
0 0  0
0 0  0
0 0  0
0 0  0
0 0  0
0 0  0
0.0419626 -0.125496  0
0.125788 -0.126069  0
0.210357 -0.127716  0
0.296539 -0.130226  0
0.384223 -0.132916  0
0.473657 -0.135764  0
0.564921 -0.139041  0
0.658169 -0.143243  0
0.754268 -0.148793  0
0.853963 -0.154881  0
0.956899 -0.159841  0
1.06093 -0.162654  0
1.16601 -0.167853  0
1.27511 -0.175163  0
1.38946 -0.178968  0
1.50442 -0.17078  0
1.60674 -0.144664  0
1.692 -0.125177  0
1.76758 -0.112133  0
1.83719 -0.102358  0
1.90223 -0.0955682  0
1.96349 -0.089606  0
2.02155 -0.0843735  0
2.07642 -0.0796136  0
2.12918 -0.0783865  0
2.183 -0.0822189  0
2.24146 -0.0883615  0
2.30073 -0.0779378  0
2.34194 -0.0417794  0
2.36317 -0.0261532  0
2.38059 -0.0260463  0
2.40152 -0.0366385  0
2.43072 -0.0477147  0
2.46278 -0.0191846  0
2.47281 0.0464003  0
2.46805 0.0480964  0
2.43762 0.0240482  0
1.20359 0  0
0 0  0
0 0  0
0 0  0
0 0  0
0 0  0
0 0  0
0 0  0
0 0  0
0 0  0
0 0  0
0 0  0
0 0  0
0.041718 -0.208604  0
0.125189 -0.210166  0
0.209219 -0.212816  0
0.294783 -0.216928  0
0.382231 -0.221463  0
0.471171 -0.225915  0
0.561004 -0.230255  0
0.651283 -0.235833  0
0.743095 -0.244418  0
0.838497 -0.254655  0
0.937208 -0.261987  0
1.0316 -0.259203  0
1.12149 -0.266527  0
1.21561 -0.279976  0
1.31885 -0.292012  0
1.42982 -0.283941  0
1.52526 -0.229535  0
1.59977 -0.200315  0
1.6703 -0.183384  0
1.73935 -0.170005  0
1.8059 -0.159739  0
1.86922 -0.150281  0
1.92922 -0.142008  0
1.98601 -0.133948  0
2.04001 -0.131041  0
2.093 -0.136585  0
2.14993 -0.149513  0
2.2125 -0.138761  0
2.25971 -0.069708  0
2.28754 -0.0473678  0
2.31231 -0.0470223  0
2.33343 -0.0579139  0
2.34856 -0.0709081  0
2.35444 -0.034025  0
2.41278 0.00856511  0
2.46958 0.0240482  0
1.23403 0.0240482  0
0 0  0
0 0  0
0 0  0
0 0  0
0 0  0
0 0  0
0 0  0
0 0  0
0 0  0
0 0  0
0 0  0
0 0  0
0 0  0
0.041324 -0.291367  0
0.124153 -0.293476  0
0.207403 -0.297156  0
0.291954 -0.30309  0
0.378782 -0.309678  0
0.467681 -0.315882  0
0.556072 -0.318973  0
0.640595 -0.32222  0
0.724352 -0.333865  0
0.81358 -0.350084  0
0.909586 -0.361571  0
0.992433 -0.33716  0
1.0611 -0.347423  0
1.13644 -0.368819  0
1.22296 -0.393184  0
1.32198 -0.393036  0
1.414 -0.308097  0
1.49179 -0.274196  0
1.57082 -0.25919  0
1.64503 -0.237588  0
1.71865 -0.232435  0
1.78598 -0.208357  0
1.84946 -0.207562  0
1.91073 -0.186575  0
1.96373 -0.185499  0
2.01587 -0.18737  0
2.05474 -0.194624  0
2.06952 -0.171095  0
2.15989 -0.127878  0
2.27466 -0.030125  0
2.31576 -0.0294512  0
2.34238 -0.0335797  0
2.33199 -0.0383957  0
2.33306 -0.0170125  0
1.17722 -0.0170125  0
0 0  0
0 0  0
0 0  0
0 0  0
0 0  0
0 0  0
0 0  0
0 0  0
0 0  0
0 0  0
0 0  0
0 0  0
0 0  0
0 0  0
0 0  0
0.0408185 -0.37346  0
0.122359 -0.375747  0
0.203738 -0.379745  0
0.286195 -0.387871  0
0.371677 -0.397512  0
0.462084 -0.407675  0
0.547462 -0.401309  0
0.621255 -0.398516  0
0.692408 -0.41278  0
0.771087 -0.439369  0
0.862737 -0.460242  0
0.940602 -0.399428  0
1.00515 -0.418533  0
1.06804 -0.436085  0
1.12353 -0.468054  0
1.1518 -0.445601  0
1.28509 -0.396605  0
1.46796 -0.156239  0
1.55011 -0.149969  0
1.63136 -0.135526  0
1.70089 -0.136296  0
1.77162 -0.117762  0
1.83746 -0.121941  0
1.89556 -0.105761  0
1.9637 -0.106776  0
2.0138 -0.10573  0
2.03456 -0.104703  0
2.05037 -0.0855476  0
1.03476 -0.0855476  0
0 0  0
0 0  0
0 0  0
0 0  0
0 0  0
0 0  0
0 0  0
0 0  0
0 0  0
0 0  0
0 0  0
0 0  0
0 0  0
0 0  0
0 0  0
0 0  0
0 0  0
0 0  0
0 0  0
0 0  0
0 0  0
0.0397478 -0.45398  0
0.118802 -0.455973  0
0.197176 -0.459705  0
0.2755 -0.469115  0
0.35686 -0.483426  0
0.448607 -0.504174  0
0.520497 -0.462297  0
0.583156 -0.474151  0
0.656913 -0.482233  0
0.709639 -0.501469  0
0.729017 -0.509304  0
0.862194 -0.468806  0
1.02265 -0.227099  0
1.0891 -0.231656  0
1.11468 -0.248163  0
1.12644 -0.2228  0
0.575902 -0.2228  0
0 0  0
0 0  0
0 0  0
0 0  0
0 0  0
0 0  0
0 0  0
0 0  0
0 0  0
0 0  0
0 0  0
0 0  0
0 0  0
0 0  0
0 0  0
0 0  0
0 0  0
0 0  0
0 0  0
0 0  0
0 0  0
0 0  0
0 0  0
0 0  0
0 0  0
0 0  0
0 0  0
0 0  0
0 0  0
0 0  0
0 0  0
0 0  0
0 0  0
0.0380202 -0.531742  0
0.115274 -0.534617  0
0.189287 -0.533715  0
0.262834 -0.547221  0
0.321585 -0.545554  0
0.341566 -0.553887  0
0.457163 -0.519216  0
0.598673 -0.25728  0
0.660057 -0.25779  0
0.706501 -0.260424  0
0.723245 -0.254652  0
0.364509 -0.254652  0
0 0  0
0 0  0
0 0  0
0 0  0
0 0  0
0 0  0
0 0  0
0 0  0
0 0  0
0 0  0
0 0  0
0 0  0
0 0  0
0 0  0
0 0  0
0 0  0
0 0  0
0 0  0
0 0  0
0 0  0
0 0  0
0 0  0
0 0  0
0 0  0
0 0  0
0 0  0
0 0  0
0 0  0
0 0  0
0 0  0
0 0  0
0 0  0
0 0  0
0 0  0
0 0  0
0 0  0
0 0  0
0 0  0
0.0400646 -0.284881  0
0.11464 -0.286925  0
0.195356 -0.284246  0
0.261355 -0.292995  0
0.305533 -0.282768  0
0.335742 -0.276943  0
0.170783 -0.276943  0
0 0  0
0 0  0
0 0  0
0 0  0
0 0  0
0 0  0
0 0  0
0 0  0
0 0  0
0 0  0
0 0  0
0 0  0
0 0  0
0 0  0
0 0  0
0 0  0
0 0  0
0 0  0
0 0  0
0 0  0
0 0  0
0 0  0
0 0  0
0 0  0
0 0  0
0 0  0
0 0  0
0 0  0
0 0  0
0 0  0
0 0  0
0 0  0
0 0  0
0 0  0
0 0  0
0 0  0
0 0  0
0 0  0
0 0  0
0 0  0
0 0  0
0 0  0
0 0  0
0 0  0
0 0  0
0 0  0
0 0  0
0 0  0
0 0  0
0 0  0
0 0  0
0 0  0
0 0  0
0 0  0
0 0  0
0 0  0
0 0  0
0 0  0
0 0  0
0 0  0
0 0  0
0 0  0
0 0  0
0 0  0
0 0  0
0 0  0
0 0  0
0 0  0
0 0  0
0 0  0
0 0  0
0 0  0
0 0  0
0 0  0
0 0  0
0 0  0
0 0  0
0 0  0
0 0  0
0 0  0
0 0  0
0 0  0
0 0  0
0 0  0
0 0  0
0 0  0
0 0  0
0 0  0
0 0  0
0 0  0
0 0  0
0 0  0
0 0  0
0 0  0
0 0  0
0 0  0
0 0  0
0 0  0
0 0  0
0 0  0
0 0  0
0 0  0
0 0  0
0 0  0
0 0  0
0 0  0
0 0  0
0 0  0
0 0  0
0 0  0
0 0  0
0 0  0
0 0  0
0 0  0
0 0  0
0 0  0
0 0  0
0 0  0
0 0  0
0 0  0
0 0  0
0 0  0
0 0  0
0 0  0
0 0  0
0 0  0
0 0  0
0 0  0
0 0  0
0 0  0
0 0  0
0 0  0
0 0  0
0 0  0
0 0  0
0 0  0
0 0  0
0 0  0
0 0  0
0 0  0
0 0  0
0 0  0
0 0  0
0 0  0
0 0  0
0 0  0
0 0  0
0 0  0
0 0  0
0 0  0
0 0  0
0 0  0
0 0  0
0 0  0
0 0  0
0 0  0
0 0  0
0 0  0
0 0  0
0 0  0
0 0  0
0 0  0
0 0  0
0 0  0
0 0  0
0 0  0
0 0  0
0 0  0
0 0  0
0 0  0
0 0  0
0 0  0
0 0  0
0 0  0
0 0  0
0 0  0
0 0  0
0 0  0
0 0  0
0 0  0
0 0  0
0 0  0
0 0  0
0 0  0
0 0  0
0 0  0
0 0  0
0 0  0
0 0  0
0 0  0
0 0  0
0 0  0
0 0  0
0 0  0
0 0  0
0 0  0
0 0  0
0 0  0
0 0  0
0 0  0
0 0  0
0 0  0
0 0  0
0 0  0
0 0  0
0 0  0
0 0  0
0 0  0
0 0  0
0 0  0
0 0  0
0 0  0
0 0  0
0 0  0
0 0  0
0 0  0
0 0  0
0 0  0
0 0  0
0 0  0
0 0  0
0 0  0
0 0  0
0 0  0
0 0  0
0 0  0
0 0  0
0 0  0
0 0  0
0 0  0
0 0  0
0 0  0
0 0  0
0 0  0
0 0  0
0 0  0
0 0  0
0 0  0
0 0  0
0 0  0
0 0  0
0 0  0
0 0  0
0 0  0
0 0  0
0 0  0
0 0  0
0 0  0
0 0  0
0 0  0
0 0  0
0 0  0
0 0  0
0 0  0
0 0  0
0 0  0
0 0  0
0 0  0
0 0  0
0 0  0
0 0  0
0 0  0
0 0  0
0 0  0
0 0  0
0 0  0
0 0  0
0 0  0
0 0  0
0 0  0
0 0  0
0 0  0
0 0  0
0 0  0
0 0  0
0 0  0
0 0  0
0 0  0
0 0  0
0 0  0
0 0  0
0 0  0
0 0  0
0 0  0
0 0  0
0 0  0
0 0  0
0 0  0
0 0  0
0 0  0
0 0  0
0 0  0
0 0  0
0 0  0
0 0  0
0 0  0
0 0  0
0 0  0
0 0  0
0 0  0
0 0  0
0 0  0
0 0  0
0 0  0
0 0  0
0 0  0
0 0  0
0 0  0
0 0  0
0 0  0
0 0  0
0 0  0
0 0  0
0 0  0
0 0  0
0 0  0
0 0  0
0 0  0
0 0  0
0 0  0
0 0  0
0 0  0
0 0  0
0 0  0
0 0  0
0 0  0
0 0  0
0 0  0
0 0  0
0 0  0
0 0  0
0 0  0
0 0  0
0 0  0
0 0  0
0 0  0
0 0  0
0 0  0
0 0  0
0 0  0
0 0  0
0 0  0
0 0  0
0 0  0
0 0  0
0 0  0
0 0  0
0 0  0
0 0  0
0 0  0
0 0  0
0 0  0
0 0  0
0 0  0
0 0  0
0 0  0
0 0  0
0 0  0
0 0  0
0 0  0
0 0  0
0 0  0
0 0  0
0 0  0
0 0  0
0 0  0
0 0  0
0 0  0
0 0  0
0 0  0
0 0  0
0 0  0
0 0  0
0 0  0
0 0  0
0 0  0
0 0  0
0 0  0
0 0  0
0 0  0
0 0  0
0 0  0
0 0  0
0 0  0
0 0  0
0 0  0
0 0  0
0 0  0
0 0  0
0 0  0
0 0  0
0 0  0
0 0  0
0 0  0
0 0  0
0 0  0
0 0  0
0 0  0
0 0  0
0 0  0
0 0  0
0 0  0
0 0  0
0 0  0
0 0  0
0 0  0
0 0  0
0 0  0
0 0  0
0 0  0
0 0  0
0 0  0
0 0  0
0 0  0
0 0  0
0 0  0
0 0  0
0 0  0
0 0  0
0 0  0
0 0  0
0 0  0
0 0  0
0 0  0
0 0  0
0 0  0
0 0  0
0 0  0
0 0  0
0 0  0
0 0  0
0 0  0
0 0  0
0 0  0
0 0  0
0 0  0
0 0  0
0 0  0
0 0  0
0 0  0
0 0  0
0 0  0
0 0  0
0 0  0
0 0  0
0 0  0
0 0  0
0 0  0
0 0  0
0 0  0
0 0  0
0 0  0
0 0  0
0 0  0
0 0  0
0 0  0
0 0  0
0 0  0
0 0  0
0 0  0
0 0  0
0 0  0
0 0  0
0 0  0
0 0  0
0 0  0
0 0  0
0 0  0
0 0  0
0 0  0
0 0  0
0 0  0
0 0  0
0 0  0
0 0  0
0 0  0
0 0  0
0 0  0
0 0  0
0 0  0
0 0  0
0 0  0
0 0  0
0 0  0
0 0  0
0 0  0
0 0  0
0 0  0
0 0  0
0 0  0
0 0  0
0 0  0
0 0  0
0 0  0
0 0  0
0 0  0
0 0  0
0 0  0
0 0  0
0 0  0
0 0  0
0 0  0
0 0  0
0 0  0
0 0  0
0 0  0
0 0  0
0 0  0
0 0  0
0 0  0
0 0  0
0 0  0
0 0  0
0 0  0
0 0  0
0 0  0
0 0  0
0 0  0
0 0  0
0 0  0
0 0  0
0 0  0
0 0  0
0 0  0
0 0  0
0 0  0
0 0  0
0 0  0
0 0  0
0 0  0
0 0  0
0 0  0
0 0  0
0 0  0
0 0  0
0 0  0
0 0  0
0 0  0
0 0  0
0 0  0
0 0  0
0 0  0
0 0  0
0 0  0
0 0  0
0 0  0
0 0  0
0 0  0
0 0  0
0 0  0
0 0  0
0 0  0
0 0  0
0 0  0
0 0  0
0 0  0
0 0  0
0 0  0
0 0  0
0 0  0
0 0  0
0 0  0
0 0  0
0 0  0
0 0  0
0 0  0
0 0  0
0 0  0
0 0  0
0 0  0
0 0  0
0 0  0
0 0  0
0 0  0
0 0  0
0 0  0
0 0  0
0 0  0
0 0  0
0 0  0
0 0  0
0 0  0
0 0  0
0 0  0
0 0  0
0 0  0
0 0  0
0 0  0
0 0  0
0 0  0
0 0  0
0 0  0
0 0  0
0 0  0
0 0  0
0 0  0
0 0  0
0 0  0
0 0  0
0 0  0
0 0  0
0 0  0
0 0  0
0 0  0
0 0  0
0 0  0
0 0  0
0 0  0
0 0  0
0 0  0
0 0  0
0 0  0
0 0  0
0 0  0
0 0  0
0 0  0
0 0  0
0 0  0
0 0  0
0 0  0
0 0  0
0 0  0
0 0  0
0 0  0
0 0  0
0 0  0
0 0  0
0 0  0
0 0  0
0 0  0
0 0  0
0 0  0
0 0  0
0 0  0
0 0  0
0 0  0
0 0  0
0 0  0
0 0  0
0 0  0
0 0  0
0 0  0
0 0  0

SCALARS pressure double 1
LOOKUP_TABLE default
1.66233
1.65094
1.63128
1.6034
1.56964
1.53034
1.48554
1.43737
1.38604
1.33099
1.27187
1.21007
1.14782
1.08341
1.01319
0.935864
0.858663
0.79593
0.749918
0.716854
0.693541
0.67611
0.661782
0.647457
0.631744
0.610205
0.577745
0.532079
0.484447
0.450587
0.429038
0.410386
0.385862
0.35001
0.3216
0.396427
0.644104
0
0
0
0
0
0
0
0
0
0
0
0
0
1.42852
1.41581
1.39694
1.36999
1.33506
1.29424
1.24772
1.19856
1.14686
1.09083
1.02921
0.963898
0.901854
0.839482
0.770752
0.690337
0.606729
0.547303
0.507901
0.480866
0.463629
0.45
0.439726
0.4298
0.417752
0.400214
0.369397
0.317971
0.253121
0.225823
0.210552
0.199884
0.18244
0.130616
0.00119898
-0.0274125
0
0
0
0
0
0
0
0
0
0
0
0
0
0
1.17047
1.15864
1.13936
1.11291
1.07687
1.03113
0.980038
0.929485
0.878269
0.820924
0.753086
0.677695
0.617524
0.561808
0.498468
0.410982
0.302325
0.253904
0.230084
0.214171
0.208932
0.200359
0.199582
0.193284
0.190823
0.183152
0.159086
0.103419
-0.0245268
-0.0254379
-0.0262231
-0.018236
0
-0.0155836
0
0
0
0
0
0
0
0
0
0
0
0
0
0
0
0
0.88957
0.879968
0.862106
0.835948
0.797527
0.744266
0.680831
0.630501
0.584065
0.527987
0.450226
0.344982
0.296172
0.256682
0.21336
0.12108
-0.0786907
-0.0822028
-0.0740749
-0.081761
-0.0602241
-0.0754105
-0.0519223
-0.0630333
-0.0496782
-0.0363143
-0.0364196
-0.0469313
0
0
0
0
0
0
0
0
0
0
0
0
0
0
0
0
0
0
0
0
0
0
0.587709
0.580414
0.566073
0.543163
0.503699
0.438413
0.338187
0.299537
0.270593
0.225692
0.143028
-0.0665211
-0.0575884
-0.0718777
-0.0503767
-0.0760439
0
0
0
0
0
0
0
0
0
0
0
0
0
0
0
0
0
0
0
0
0
0
0
0
0
0
0
0
0
0
0
0
0
0
0.264527
0.261063
0.252064
0.24028
0.208033
0.138058
-0.0930015
-0.062186
-0.0484736
-0.0646147
-0.0578745
0
0
0
0
0
0
0
0
0
0
0
0
0
0
0
0
0
0
0
0
0
0
0
0
0
0
0
0
0
0
0
0
0
0
0
0
0
0
0
-0.078069
-0.0750745
-0.0807291
-0.0637839
-0.0729144
-0.0239284
0
0
0
0
0
0
0
0
0
0
0
0
0
0
0
0
0
0
0
0
0
0
0
0
0
0
0
0
0
0
0
0
0
0
0
0
0
0
0
0
0
0
0
0
0
0
0
0
0
0
0
0
0
0
0
0
0
0
0
0
0
0
0
0
0
0
0
0
0
0
0
0
0
0
0
0
0
0
0
0
0
0
0
0
0
0
0
0
0
0
0
0
0
0
0
0
0
0
0
0
0
0
0
0
0
0
0
0
0
0
0
0
0
0
0
0
0
0
0
0
0
0
0
0
0
0
0
0
0
0
0
0
0
0
0
0
0
0
0
0
0
0
0
0
0
0
0
0
0
0
0
0
0
0
0
0
0
0
0
0
0
0
0
0
0
0
0
0
0
0
0
0
0
0
0
0
0
0
0
0
0
0
0
0
0
0
0
0
0
0
0
0
0
0
0
0
0
0
0
0
0
0
0
0
0
0
0
0
0
0
0
0
0
0
0
0
0
0
0
0
0
0
0
0
0
0
0
0
0
0
0
0
0
0
0
0
0
0
0
0
0
0
0
0
0
0
0
0
0
0
0
0
0
0
0
0
0
0
0
0
0
0
0
0
0
0
0
0
0
0
0
0
0
0
0
0
0
0
0
0
0
0
0
0
0
0
0
0
0
0
0
0
0
0
0
0
0
0
0
0
0
0
0
0
0
0
0
0
0
0
0
0
0
0
0
0
0
0
0
0
0
0
0
0
0
0
0
0
0
0
0
0
0
0
0
0
0
0
0
0
0
0
0
0
0
0
0
0
0
0
0
0
0
0
0
0
0
0
0
0
0
0
0
0
0
0
0
0
0
0
0
0
0
0
0
0
0
0
0
0
0
0
0
0
0
0
0
0
0
0
0
0
0
0
0
0
0
0
0
0
0
0
0
0
0
0
0
0
0
0
0
0
0
0
0
0
0
0
0
0
0
0
0
0
0
0
0
0
0
0
0
0
0
0
0
0
0
0
0
0
0
0
0
0
0
0
0
0
0
0
0
0
0
0
0
0
0
0
0
0
0
0
0
0
0
0
0
0
0
0
0
0
0
0
0
0
0
0
0
0
0
0
0
0
0
0
0
0
0
0
0
0
0
0
0
0
0
0
0
0
0
0
0
0
0
0
0
0
0
0
0
0
0
0
0
0
0
0
0
0
0
0
0
0
0
0
0
0
0
0
0
0
0
0
0
0
0
0
0
0
0
0
0
0
0
0
0
0
0
0
0
0
0
0
0
0
0
0
0
0
0
0
0
0
0
0
0
0
0
0
0
0
0
0
0
0
0
0
0
0
0
0
0
0
0
0
0
0
0
0
0
0
0
0
0
0
0
0
0
0
0
0
0
0
0
0
0
0
0
0
0
0
0
0
0
0
0
0
0
0
0
0
0
0
0
0
0
0
0
0
0
0
0
0
0
0
0
0
0
0
0
0
0
0
0
0
0
0
0
0
0
0
0
0
0
0
0
0
0
0
0
0
0
0
0
0
0
0
0
0
0
0
0
0
0
0
0
0
0
0
0
0
0
0
0
0
0
0
0
0
0
0
0
0
SCALARS rhs double 1
LOOKUP_TABLE default
-6.13241
-5.95548
-5.97417
-5.96032
-5.94686
-5.97724
-5.98901
-6.01072
-6.03901
-6.07689
-6.1145
-6.15007
-6.19056
-6.23271
-6.22907
-6.12591
-5.93447
-5.78905
-5.72568
-5.65556
-5.59381
-5.57596
-5.55254
-5.48148
-5.5123
-5.54766
-5.50639
-5.44663
-5.38322
-5.35208
-5.38364
-5.40033
-5.3719
-5.29959
-5.42913
-6.27484
0.0147199
0
0
0
0
0
0
0
0
0
0
0
0
0
-0.832947
-0.784802
-0.746849
-0.760876
-0.76997
-0.793776
-0.811602
-0.821324
-0.853295
-0.894527
-0.923854
-0.925568
-0.96179
-1.01264
-1.03338
-0.935696
-0.702366
-0.618945
-0.593295
-0.513282
-0.541673
-0.496844
-0.446609
-0.538698
-0.452889
-0.512569
-0.539618
-0.35301
-0.247224
-0.323886
-0.352465
-0.368123
-0.331325
-0.108719
2.09368
0.377103
0
0
0
0
0
0
0
0
0
0
0
0
0
0
-0.785127
-0.735268
-0.706545
-0.722835
-0.753357
-0.759005
-0.776465
-0.772713
-0.791244
-0.835826
-0.862315
-0.78648
-0.812168
-0.880966
-0.926387
-0.793161
-0.413373
-0.454471
-0.461446
-0.466771
-0.44028
-0.464964
-0.421666
-0.401536
-0.459273
-0.476874
-0.408553
-0.206591
6.28083
6.46634
5.42284
4.02205
2.09368
0.0147199
0
0
0
0
0
0
0
0
0
0
0
0
0
0
0
0
-0.746624
-0.701185
-0.691392
-0.703807
-0.729651
-0.746299
-0.764352
-0.702874
-0.723304
-0.782345
-0.801859
-0.561105
-0.587278
-0.67836
-0.69509
-0.368186
3.46384
6.32513
27.1327
20.7489
16.4934
11.7115
8.65318
5.86527
6.28083
6.46634
4.02205
0.377103
0
0
0
0
0
0
0
0
0
0
0
0
0
0
0
0
0
0
0
0
0
0
-0.690909
-0.679894
-0.666837
-0.678605
-0.698173
-0.73702
-0.680532
-0.533494
-0.546573
-0.644024
-0.51893
0.930974
3.77646
4.06704
43.2787
34.6027
19.5017
9.00999
0
0
0
0
0
0
0
0
0
0
0
0
0
0
0
0
0
0
0
0
0
0
0
0
0
0
0
0
0
0
0
0
-0.555584
-0.569209
-0.565329
-0.546607
-0.570905
-0.570883
-0.434036
0.991557
3.22135
4.63248
6.13295
4.81997
12.4974
35.3186
0
0
0
0
0
0
0
0
0
0
0
0
0
0
0
0
0
0
0
0
0
0
0
0
0
0
0
0
0
0
0
0
0
0
0
0
3.22412
3.29209
3.84597
3.92087
4.6832
5.49042
6.33856
5.10183
2.09579
1.47098
2.53607
14.3387
26.3021
0
0
0
0
0
0
0
0
0
0
0
0
0
0
0
0
0
0
0
0
0
0
0
0
0
0
0
0
0
0
0
0
0
0
0
0
0
2.59543
2.54951
1.62039
1.22694
0.49828
0.777197
0.916648
3.70181
7.89906
8.9678
11.6117
27.2717
0
0
0
0
0
0
0
0
0
0
0
0
0
0
0
0
0
0
0
0
0
0
0
0
0
0
0
0
0
0
0
0
0
0
0
0
0
0
2.45787
2.59584
4.01582
4.53242
6.43299
7.47839
9.23983
7.89527
5.98596
8.49533
41.2731
0
0
0
0
0
0
0
0
0
0
0
0
0
0
0
0
0
0
0
0
0
0
0
0
0
0
0
0
0
0
0
0
0
0
0
0
0
0
0
9.36633
9.33066
8.04142
9.25902
7.69325
7.78758
9.09454
10.208
11.1703
21.7759
3.2041
0
0
0
0
0
0
0
0
0
0
0
0
0
0
0
0
0
0
0
0
0
0
0
0
0
0
0
0
0
0
0
0
0
0
0
0
0
0
0
7.92952
10.0992
10.1145
8.86149
11.2589
12.4355
10.8064
8.57914
8.60392
43.2779
0
0
0
0
0
0
0
0
0
0
0
0
0
0
0
0
0
0
0
0
0
0
0
0
0
0
0
0
0
0
0
0
0
0
0
0
0
0
0
0
13.2058
10.8439
11.0393
13.0106
10.7272
10.2862
9.48307
9.57063
8.67562
33.2233
0
0
0
0
0
0
0
0
0
0
0
0
0
0
0
0
0
0
0
0
0
0
0
0
0
0
0
0
0
0
0
0
0
0
0
0
0
0
0
0
8.71388
9.82855
9.83715
7.65861
8.9401
7.02241
6.34758
6.44313
5.90605
26.1906
0
0
0
0
0
0
0
0
0
0
0
0
0
0
0
0
0
0
0
0
0
0
0
0
0
0
0
0
0
0
0
0
0
0
0
0
0
0
0
0
7.061
5.55892
5.71513
6.83869
5.56628
5.6724
5.42452
5.43401
4.26976
17.1298
0
0
0
0
0
0
0
0
0
0
0
0
0
0
0
0
0
0
0
0
0
0
0
0
0
0
0
0
0
0
0
0
0
0
0
0
0
0
0
0
6.55202
6.55536
6.55982
5.31204
5.40986
6.30896
5.08555
5.09432
5.2091
10.3371
0
0
0
0
0
0
0
0
0
0
0
0
0
0
0
0
0
0
0
0
0
0
0
0
0
0
0
0
0
0
0
0
0
0
0
0
0
0
0
0
5.52783
5.53996
5.54196
5.54121
5.54439
4.52522
5.16545
5.22779
16.4546
0
0
0
0
0
0
0
0
0
0
0
0
0
0
0
0
0
0
0
0
0
0
0
0
0
0
0
0
0
0
0
0
0
0
0
0
0
0
0
0
0
3.60674
3.66202
3.98033
3.98143
3.98244
3.98396
3.23505
3.31189
11.5415
0
0
0
0
0
0
0
0
0
0
0
0
0
0
0
0
0
0
0
0
0
0
0
0
0
0
0
0
0
0
0
0
0
0
0
0
0
0
0
0
0
6.01719
6.36025
5.75447
5.75462
5.75506
5.75536
5.75588
5.76119
8.30564
0
0
0
0
0
0
0
0
0
0
0
0
0
0
0
0
0
0
0
0
0
0
0
0
0
0
0
0
0
0
0
0
0
0
0
0
0
0
0
0
0
3.29611
2.74112
2.74112
2.74112
2.74112
2.74112
2.74112
2.74112
2.74112
0
0
0
0
0
0
0
0
0
0
0
0
0
0
0
0
0
0
0
0
0
0
0
0
0
0
0
0
0
0
0
0
0
0
0
0
0
0
0
0
0
0
0
0
0
0
0
0
0
0
0
0
0
0
0
0
0
0
0
0
0
0
0
0
0
0
0
0
0
0
0
0
0
0
0
0
0
0
0
0
0
0
0
0
0
0
0
0
0
0
0
