# vtk DataFile Version 4.0
Nusif Fluid VTK output
ASCII
DATASET STRUCTURED_POINTS
DIMENSIONS 50 20 1
ORIGIN 0 0 0 
SPACING 0.2 0.2 1
POINT_DATA 1000 

VECTORS velocity double
0.0479918 -0.056071  0
0.145462 -0.0567532  0
0.245918 -0.0581807  0
0.350195 -0.0604309  0
0.459932 -0.0635038  0
0.576752 -0.0673751  0
0.702303 -0.0720982  0
0.838069 -0.077455  0
0.984766 -0.0828984  0
1.14169 -0.087567  0
1.30616 -0.0903361  0
1.47345 -0.0902841  0
1.63755 -0.0870657  0
1.79201 -0.0805745  0
1.93038 -0.0709186  0
2.04909 -0.0608688  0
2.14843 -0.0515099  0
2.22855 -0.0416327  0
2.28863 -0.0314473  0
2.3313 -0.0242068  0
2.36068 -0.0181458  0
2.37544 -0.00958804  0
2.37576 -0.00370226  0
2.36913 -0.00263041  0
2.35236 0.00643535  0
2.31893 0.0140334  0
2.30918 -0.0107661  0
1.15997 0.00867266  0
0 0  0
0 0  0
0 0  0
0 0  0
0 0  0
0 0  0
0 0  0
0 0  0
0 0  0
0 0  0
0 0  0
0 0  0
0 0  0
0 0  0
0 0  0
0 0  0
0 0  0
0 0  0
0 0  0
0 0  0
0 0  0
0 0  0
0.0473039 -0.166695  0
0.143302 -0.168771  0
0.242168 -0.173094  0
0.344693 -0.179765  0
0.452373 -0.188866  0
0.566979 -0.200549  0
0.690342 -0.214792  0
0.824029 -0.231006  0
0.969021 -0.247687  0
1.12485 -0.262045  0
1.28857 -0.270437  0
1.45455 -0.26974  0
1.61608 -0.259425  0
1.76648 -0.239205  0
1.8979 -0.20814  0
2.00699 -0.177464  0
2.09751 -0.150759  0
2.17108 -0.122047  0
2.22405 -0.090031  0
2.25964 -0.0698209  0
2.28695 -0.0551519  0
2.3031 -0.0294202  0
2.30318 -0.010204  0
2.29965 -0.0118901  0
2.29799 0.00819545  0
2.28862 0.0356244  0
2.28107 -0.0215321  0
1.14053 -0.00209341  0
0 0  0
0 0  0
0 0  0
0 0  0
0 0  0
0 0  0
0 0  0
0 0  0
0 0  0
0 0  0
0 0  0
0 0  0
0 0  0
0 0  0
0 0  0
0 0  0
0 0  0
0 0  0
0 0  0
0 0  0
0 0  0
0 0  0
0.0459044 -0.274293  0
0.138978 -0.27775  0
0.234659 -0.284874  0
0.333681 -0.295704  0
0.437559 -0.310601  0
0.547937 -0.329866  0
0.66664 -0.353568  0
0.795764 -0.38102  0
0.936928 -0.40979  0
1.09 -0.434763  0
1.25149 -0.448832  0
1.41369 -0.445418  0
1.5681 -0.425546  0
1.70924 -0.390506  0
1.82635 -0.331236  0
1.91639 -0.279372  0
1.99107 -0.239936  0
2.05518 -0.196445  0
2.09859 -0.137903  0
2.12419 -0.109048  0
2.14805 -0.0930034  0
2.1675 -0.0530829  0
2.17579 -0.0143511  0
2.18181 -0.0231953  0
2.18649 0.00352021  0
2.26613 0.0233511  0
2.31342 -0.0107661  0
1.14053 -0.0107661  0
0 0  0
0 0  0
0 0  0
0 0  0
0 0  0
0 0  0
0 0  0
0 0  0
0 0  0
0 0  0
0 0  0
0 0  0
0 0  0
0 0  0
0 0  0
0 0  0
0 0  0
0 0  0
0 0  0
0 0  0
0 0  0
0 0  0
0.0439121 -0.378278  0
0.132865 -0.383025  0
0.224082 -0.392608  0
0.318269 -0.407255  0
0.416703 -0.427394  0
0.520741 -0.453489  0
0.632224 -0.486086  0
0.75361 -0.52494  0
0.887296 -0.566625  0
1.03396 -0.603543  0
1.18974 -0.623192  0
1.34315 -0.612514  0
1.48094 -0.576494  0
1.60351 -0.529107  0
1.69928 -0.431354  0
1.76645 -0.362327  0
1.82581 -0.316895  0
1.88122 -0.264901  0
1.92677 -0.177821  0
1.95393 -0.134841  0
1.98087 -0.130964  0
1.99984 -0.0665014  0
2.09457 -0.0411001  0
2.1722 -0.0139356  0
2.17079 0.00176011  0
1.09324 0.00176011  0
0 0  0
0 0  0
0 0  0
0 0  0
0 0  0
0 0  0
0 0  0
0 0  0
0 0  0
0 0  0
0 0  0
0 0  0
0 0  0
0 0  0
0 0  0
0 0  0
0 0  0
0 0  0
0 0  0
0 0  0
0 0  0
0 0  0
0 0  0
0 0  0
0.0415545 -0.477684  0
0.125546 -0.483519  0
0.21152 -0.495325  0
0.300069 -0.513261  0
0.392005 -0.537707  0
0.488205 -0.569341  0
0.589956 -0.609362  0
0.699787 -0.658763  0
0.820399 -0.712954  0
0.953761 -0.763087  0
1.09661 -0.788115  0
1.2323 -0.762498  0
1.33948 -0.697297  0
1.42842 -0.645628  0
1.50766 -0.509203  0
1.57253 -0.429447  0
1.63198 -0.381522  0
1.66109 -0.297739  0
1.77643 -0.247372  0
1.93039 -0.0714069  0
1.94271 -0.0749666  0
1.95812 -0.0332507  0
0.999919 -0.0332507  0
0 0  0
0 0  0
0 0  0
0 0  0
0 0  0
0 0  0
0 0  0
0 0  0
0 0  0
0 0  0
0 0  0
0 0  0
0 0  0
0 0  0
0 0  0
0 0  0
0 0  0
0 0  0
0 0  0
0 0  0
0 0  0
0 0  0
0 0  0
0 0  0
0 0  0
0 0  0
0 0  0
0.0390449 -0.571995  0
0.117928 -0.578767  0
0.198695 -0.592754  0
0.2817 -0.613288  0
0.367098 -0.640888  0
0.455016 -0.676136  0
0.545432 -0.720572  0
0.640768 -0.778555  0
0.740925 -0.839744  0
0.84906 -0.903599  0
0.965343 -0.932547  0
1.06689 -0.881085  0
1.13664 -0.774983  0
1.16365 -0.696793  0
1.31095 -0.62026  0
1.50598 -0.229897  0
1.55096 -0.205314  0
1.60464 -0.14887  0
0.830545 -0.14887  0
0 0  0
0 0  0
0 0  0
0 0  0
0 0  0
0 0  0
0 0  0
0 0  0
0 0  0
0 0  0
0 0  0
0 0  0
0 0  0
0 0  0
0 0  0
0 0  0
0 0  0
0 0  0
0 0  0
0 0  0
0 0  0
0 0  0
0 0  0
0 0  0
0 0  0
0 0  0
0 0  0
0 0  0
0 0  0
0 0  0
0 0  0
0.0367518 -0.661284  0
0.111121 -0.669156  0
0.187627 -0.685493  0
0.266554 -0.708308  0
0.346478 -0.736999  0
0.425716 -0.772979  0
0.505423 -0.819645  0
0.588454 -0.883639  0
0.662103 -0.934242  0
0.730746 -1.01166  0
0.801131 -1.03695  0
0.833843 -0.930278  0
0.946148 -0.866133  0
1.11105 -0.348396  0
0.581825 -0.348396  0
0 0  0
0 0  0
0 0  0
0 0  0
0 0  0
0 0  0
0 0  0
0 0  0
0 0  0
0 0  0
0 0  0
0 0  0
0 0  0
0 0  0
0 0  0
0 0  0
0 0  0
0 0  0
0 0  0
0 0  0
0 0  0
0 0  0
0 0  0
0 0  0
0 0  0
0 0  0
0 0  0
0 0  0
0 0  0
0 0  0
0 0  0
0 0  0
0 0  0
0 0  0
0 0  0
0.0350474 -0.746367  0
0.106207 -0.755783  0
0.180129 -0.775081  0
0.258497 -0.80178  0
0.332331 -0.823026  0
0.400121 -0.859716  0
0.470564 -0.908817  0
0.541807 -0.974502  0
0.604784 -0.999318  0
0.641959 -1.06529  0
0.651472 -1.07611  0
0.742658 -1.0032  0
0.416922 -0.465139  0
0 0  0
0 0  0
0 0  0
0 0  0
0 0  0
0 0  0
0 0  0
0 0  0
0 0  0
0 0  0
0 0  0
0 0  0
0 0  0
0 0  0
0 0  0
0 0  0
0 0  0
0 0  0
0 0  0
0 0  0
0 0  0
0 0  0
0 0  0
0 0  0
0 0  0
0 0  0
0 0  0
0 0  0
0 0  0
0 0  0
0 0  0
0 0  0
0 0  0
0 0  0
0 0  0
0 0  0
0 0  0
0.0345418 -0.829048  0
0.104044 -0.839728  0
0.176164 -0.862917  0
0.253561 -0.89543  0
0.319625 -0.888552  0
0.377779 -0.932987  0
0.437396 -0.978478  0
0.464684 -1.01625  0
0.572475 -1.02162  0
0.666526 -0.5374  0
0.652129 -0.538057  0
0.325736 -0.538057  0
0 0  0
0 0  0
0 0  0
0 0  0
0 0  0
0 0  0
0 0  0
0 0  0
0 0  0
0 0  0
0 0  0
0 0  0
0 0  0
0 0  0
0 0  0
0 0  0
0 0  0
0 0  0
0 0  0
0 0  0
0 0  0
0 0  0
0 0  0
0 0  0
0 0  0
0 0  0
0 0  0
0 0  0
0 0  0
0 0  0
0 0  0
0 0  0
0 0  0
0 0  0
0 0  0
0 0  0
0 0  0
0 0  0
0.0347972 -0.904886  0
0.105706 -0.917231  0
0.159385 -0.924071  0
0.176951 -0.942091  0
0.28667 -0.928234  0
0.423473 -0.482658  0
0.462864 -0.502883  0
0.469928 -0.508126  0
0.232342 -0.508126  0
0 0  0
0 0  0
0 0  0
0 0  0
0 0  0
0 0  0
0 0  0
0 0  0
0 0  0
0 0  0
0 0  0
0 0  0
0 0  0
0 0  0
0 0  0
0 0  0
0 0  0
0 0  0
0 0  0
0 0  0
0 0  0
0 0  0
0 0  0
0 0  0
0 0  0
0 0  0
0 0  0
0 0  0
0 0  0
0 0  0
0 0  0
0 0  0
0 0  0
0 0  0
0 0  0
0 0  0
0 0  0
0 0  0
0 0  0
0 0  0
0 0  0
0.0416273 -0.469842  0
0.106684 -0.476672  0
0.153759 -0.470819  0
0.177178 -0.471046  0
0.0884757 -0.471046  0
0 0  0
0 0  0
0 0  0
0 0  0
0 0  0
0 0  0
0 0  0
0 0  0
0 0  0
0 0  0
0 0  0
0 0  0
0 0  0
0 0  0
0 0  0
0 0  0
0 0  0
0 0  0
0 0  0
0 0  0
0 0  0
0 0  0
0 0  0
0 0  0
0 0  0
0 0  0
0 0  0
0 0  0
0 0  0
0 0  0
0 0  0
0 0  0
0 0  0
0 0  0
0 0  0
0 0  0
0 0  0
0 0  0
0 0  0
0 0  0
0 0  0
0 0  0
0 0  0
0 0  0
0 0  0
0 0  0
0 0  0
0 0  0
0 0  0
0 0  0
0 0  0
0 0  0
0 0  0
0 0  0
0 0  0
0 0  0
0 0  0
0 0  0
0 0  0
0 0  0
0 0  0
0 0  0
0 0  0
0 0  0
0 0  0
0 0  0
0 0  0
0 0  0
0 0  0
0 0  0
0 0  0
0 0  0
0 0  0
0 0  0
0 0  0
0 0  0
0 0  0
0 0  0
0 0  0
0 0  0
0 0  0
0 0  0
0 0  0
0 0  0
0 0  0
0 0  0
0 0  0
0 0  0
0 0  0
0 0  0
0 0  0
0 0  0
0 0  0
0 0  0
0 0  0
0 0  0
0 0  0
0 0  0
0 0  0
0 0  0
0 0  0
0 0  0
0 0  0
0 0  0
0 0  0
0 0  0
0 0  0
0 0  0
0 0  0
0 0  0
0 0  0
0 0  0
0 0  0
0 0  0
0 0  0
0 0  0
0 0  0
0 0  0
0 0  0
0 0  0
0 0  0
0 0  0
0 0  0
0 0  0
0 0  0
0 0  0
0 0  0
0 0  0
0 0  0
0 0  0
0 0  0
0 0  0
0 0  0
0 0  0
0 0  0
0 0  0
0 0  0
0 0  0
0 0  0
0 0  0
0 0  0
0 0  0
0 0  0
0 0  0
0 0  0
0 0  0
0 0  0
0 0  0
0 0  0
0 0  0
0 0  0
0 0  0
0 0  0
0 0  0
0 0  0
0 0  0
0 0  0
0 0  0
0 0  0
0 0  0
0 0  0
0 0  0
0 0  0
0 0  0
0 0  0
0 0  0
0 0  0
0 0  0
0 0  0
0 0  0
0 0  0
0 0  0
0 0  0
0 0  0
0 0  0
0 0  0
0 0  0
0 0  0
0 0  0
0 0  0
0 0  0
0 0  0
0 0  0
0 0  0
0 0  0
0 0  0
0 0  0
0 0  0
0 0  0
0 0  0
0 0  0
0 0  0
0 0  0
0 0  0
0 0  0
0 0  0
0 0  0
0 0  0
0 0  0
0 0  0
0 0  0
0 0  0
0 0  0
0 0  0
0 0  0
0 0  0
0 0  0
0 0  0
0 0  0
0 0  0
0 0  0
0 0  0
0 0  0
0 0  0
0 0  0
0 0  0
0 0  0
0 0  0
0 0  0
0 0  0
0 0  0
0 0  0
0 0  0
0 0  0
0 0  0
0 0  0
0 0  0
0 0  0
0 0  0
0 0  0
0 0  0
0 0  0
0 0  0
0 0  0
0 0  0
0 0  0
0 0  0
0 0  0
0 0  0
0 0  0
0 0  0
0 0  0
0 0  0
0 0  0
0 0  0
0 0  0
0 0  0
0 0  0
0 0  0
0 0  0
0 0  0
0 0  0
0 0  0
0 0  0
0 0  0
0 0  0
0 0  0
0 0  0
0 0  0
0 0  0
0 0  0
0 0  0
0 0  0
0 0  0
0 0  0
0 0  0
0 0  0
0 0  0
0 0  0
0 0  0
0 0  0
0 0  0
0 0  0
0 0  0
0 0  0
0 0  0
0 0  0
0 0  0
0 0  0
0 0  0
0 0  0
0 0  0
0 0  0
0 0  0
0 0  0
0 0  0
0 0  0
0 0  0
0 0  0
0 0  0
0 0  0
0 0  0
0 0  0
0 0  0
0 0  0
0 0  0
0 0  0
0 0  0
0 0  0
0 0  0
0 0  0
0 0  0
0 0  0
0 0  0
0 0  0
0 0  0
0 0  0
0 0  0
0 0  0
0 0  0
0 0  0
0 0  0
0 0  0
0 0  0
0 0  0
0 0  0
0 0  0
0 0  0
0 0  0
0 0  0
0 0  0
0 0  0
0 0  0
0 0  0
0 0  0
0 0  0
0 0  0
0 0  0
0 0  0
0 0  0
0 0  0
0 0  0
0 0  0
0 0  0
0 0  0
0 0  0
0 0  0
0 0  0
0 0  0
0 0  0
0 0  0
0 0  0
0 0  0
0 0  0
0 0  0
0 0  0
0 0  0
0 0  0
0 0  0
0 0  0
0 0  0
0 0  0
0 0  0
0 0  0
0 0  0
0 0  0
0 0  0
0 0  0
0 0  0
0 0  0
0 0  0
0 0  0
0 0  0
0 0  0
0 0  0
0 0  0
0 0  0
0 0  0
0 0  0
0 0  0
0 0  0
0 0  0
0 0  0
0 0  0
0 0  0
0 0  0
0 0  0
0 0  0
0 0  0
0 0  0
0 0  0
0 0  0
0 0  0
0 0  0
0 0  0
0 0  0
0 0  0
0 0  0
0 0  0
0 0  0
0 0  0
0 0  0
0 0  0
0 0  0
0 0  0
0 0  0
0 0  0
0 0  0
0 0  0
0 0  0
0 0  0
0 0  0
0 0  0
0 0  0
0 0  0
0 0  0
0 0  0
0 0  0
0 0  0
0 0  0
0 0  0
0 0  0
0 0  0
0 0  0
0 0  0
0 0  0
0 0  0
0 0  0
0 0  0
0 0  0
0 0  0
0 0  0
0 0  0
0 0  0
0 0  0
0 0  0
0 0  0
0 0  0
0 0  0
0 0  0
0 0  0
0 0  0
0 0  0
0 0  0
0 0  0
0 0  0
0 0  0
0 0  0
0 0  0
0 0  0
0 0  0
0 0  0
0 0  0
0 0  0
0 0  0
0 0  0
0 0  0
0 0  0
0 0  0
0 0  0
0 0  0
0 0  0
0 0  0
0 0  0
0 0  0
0 0  0
0 0  0
0 0  0
0 0  0
0 0  0
0 0  0
0 0  0
0 0  0
0 0  0
0 0  0
0 0  0
0 0  0
0 0  0
0 0  0
0 0  0
0 0  0
0 0  0
0 0  0
0 0  0
0 0  0
0 0  0
0 0  0
0 0  0
0 0  0
0 0  0
0 0  0
0 0  0
0 0  0
0 0  0
0 0  0
0 0  0
0 0  0
0 0  0
0 0  0
0 0  0
0 0  0
0 0  0
0 0  0
0 0  0
0 0  0

SCALARS pressure double 1
LOOKUP_TABLE default
2.38912
2.38874
2.38386
2.37504
2.36128
2.33856
2.30331
2.25368
2.1851
2.09269
1.97256
1.82547
1.65667
1.4764
1.29757
1.13244
0.984987
0.854929
0.743578
0.652298
0.572801
0.496929
0.425241
0.357987
0.273569
0.163332
0
0
0
0
0
0
0
0
0
0
0
0
0
0
0
0
0
0
0
0
0
0
0
0
2.16591
2.16637
2.16157
2.15172
2.1335
2.10661
2.06982
2.01819
1.94651
1.84992
1.72478
1.57196
1.39853
1.21587
1.03783
0.880465
0.742659
0.620548
0.51487
0.433277
0.364868
0.290217
0.217721
0.171423
0.100356
0
0.00360311
0
0
0
0
0
0
0
0
0
0
0
0
0
0
0
0
0
0
0
0
0
0
0
1.92476
1.92357
1.91714
1.9024
1.88066
1.8507
1.80972
1.75365
1.67734
1.5745
1.44054
1.27623
1.09238
0.904251
0.726061
0.587142
0.472968
0.363944
0.258911
0.201367
0.163679
0.0898123
-0.01144
0
-0.0282449
0
0
0
0
0
0
0
0
0
0
0
0
0
0
0
0
0
0
0
0
0
0
0
0
0
1.66433
1.66296
1.65217
1.63351
1.6067
1.57152
1.52524
1.46339
1.38056
1.26979
1.12385
0.942698
0.742639
0.548796
0.360588
0.263831
0.197507
0.110459
-0.0267582
-0.0398204
0
-0.0568821
0
0
0
0
0
0
0
0
0
0
0
0
0
0
0
0
0
0
0
0
0
0
0
0
0
0
0
0
1.39056
1.3857
1.37063
1.34668
1.31358
1.27175
1.21895
1.15025
1.0599
0.942355
0.784332
0.581527
0.356813
0.177899
-0.0681926
-0.0653878
-0.0343474
-0.0719331
0
0
0
0
0
0
0
0
0
0
0
0
0
0
0
0
0
0
0
0
0
0
0
0
0
0
0
0
0
0
0
0
1.10507
1.0968
1.07723
1.04542
1.00323
0.954662
0.89582
0.819104
0.718892
0.602438
0.44198
0.217878
-0.0567769
-0.0882232
0
0
0
0
0
0
0
0
0
0
0
0
0
0
0
0
0
0
0
0
0
0
0
0
0
0
0
0
0
0
0
0
0
0
0
0
0.811385
0.800951
0.776112
0.733995
0.676257
0.622947
0.56327
0.478374
0.355215
0.263655
0.135983
-0.0637546
0
0
0
0
0
0
0
0
0
0
0
0
0
0
0
0
0
0
0
0
0
0
0
0
0
0
0
0
0
0
0
0
0
0
0
0
0
0
0.513519
0.502777
0.47416
0.418851
0.324041
0.276911
0.234033
0.150435
-0.0418414
-0.0401039
-0.0725937
0
0
0
0
0
0
0
0
0
0
0
0
0
0
0
0
0
0
0
0
0
0
0
0
0
0
0
0
0
0
0
0
0
0
0
0
0
0
0
0.213079
0.206492
0.182581
0.12533
-0.0724236
-0.0677323
-0.0486789
-0.061961
0
0
0
0
0
0
0
0
0
0
0
0
0
0
0
0
0
0
0
0
0
0
0
0
0
0
0
0
0
0
0
0
0
0
0
0
0
0
0
0
0
0
-0.0718959
-0.0650138
-0.0679619
-0.015505
0
0
0
0
0
0
0
0
0
0
0
0
0
0
0
0
0
0
0
0
0
0
0
0
0
0
0
0
0
0
0
0
0
0
0
0
0
0
0
0
0
0
0
0
0
0
0
0
0
0
0
0
0
0
0
0
0
0
0
0
0
0
0
0
0
0
0
0
0
0
0
0
0
0
0
0
0
0
0
0
0
0
0
0
0
0
0
0
0
0
0
0
0
0
0
0
0
0
0
0
0
0
0
0
0
0
0
0
0
0
0
0
0
0
0
0
0
0
0
0
0
0
0
0
0
0
0
0
0
0
0
0
0
0
0
0
0
0
0
0
0
0
0
0
0
0
0
0
0
0
0
0
0
0
0
0
0
0
0
0
0
0
0
0
0
0
0
0
0
0
0
0
0
0
0
0
0
0
0
0
0
0
0
0
0
0
0
0
0
0
0
0
0
0
0
0
0
0
0
0
0
0
0
0
0
0
0
0
0
0
0
0
0
0
0
0
0
0
0
0
0
0
0
0
0
0
0
0
0
0
0
0
0
0
0
0
0
0
0
0
0
0
0
0
0
0
0
0
0
0
0
0
0
0
0
0
0
0
0
0
0
0
0
0
0
0
0
0
0
0
0
0
0
0
0
0
0
0
0
0
0
0
0
0
0
0
0
0
0
0
0
0
0
0
0
0
0
0
0
0
0
0
0
0
0
0
0
0
0
0
0
0
0
0
0
0
0
0
0
0
0
0
0
0
0
0
0
0
0
0
0
0
0
0
0
0
0
0
0
0
0
0
0
0
0
0
0
0
0
0
0
0
0
0
0
0
0
0
0
0
0
0
0
0
0
0
0
0
0
0
0
0
0
0
0
0
0
0
0
0
0
0
0
0
0
0
0
0
0
0
0
0
0
0
0
0
0
0
0
0
0
0
0
0
0
0
0
0
0
0
0
0
0
0
0
0
0
0
0
0
0
0
0
0
0
0
0
0
0
0
0
0
0
0
0
0
0
0
0
0
0
0
0
0
0
0
0
0
0
0
0
0
0
0
0
0
0
0
0
0
0
0
0
0
0
0
0
0
0
0
0
0
0
0
0
0
0
0
0
0
0
0
0
0
0
0
0
0
0
0
0
0
0
0
0
0
0
0
0
0
0
0
0
0
0
0
0
0
0
0
0
0
0
0
0
0
0
0
0
0
0
0
0
0
0
0
0
0
0
0
0
0
0
0
0
0
0
0
0
0
0
0
0
0
0
0
SCALARS rhs double 1
LOOKUP_TABLE default
-5.98924
-5.87021
-5.83568
-5.86919
-6.06469
-6.23935
-6.30892
-6.45486
-6.6395
-6.82796
-6.91966
-6.92183
-6.77024
-6.50008
-6.16787
-5.86941
-5.63099
-5.39726
-5.21934
-5.18295
-5.10898
-5.06388
-5.07745
-5.09337
-4.9758
-5.41068
3.32953
0
0
0
0
0
0
0
0
0
0
0
0
0
0
0
0
0
0
0
0
0
0
0
-0.628306
-0.664456
-0.698959
-0.87598
-0.855516
-0.856088
-1.04373
-1.23026
-1.39183
-1.52713
-1.60571
-1.56533
-1.43082
-1.15806
-0.779942
-0.542489
-0.289658
-0.142862
-0.0777208
0.00832379
0.0132951
0.212133
0.114386
-0.240465
0.383205
4.9817
1.6205
0
0
0
0
0
0
0
0
0
0
0
0
0
0
0
0
0
0
0
0
0
0
0
-0.676453
-0.592464
-0.734684
-0.675443
-0.740595
-0.863702
-0.988727
-1.1498
-1.35317
-1.50733
-1.56637
-1.43031
-1.19011
-0.844625
-0.355971
-0.127654
-0.0130127
0.180038
0.446565
0.265663
0.0340876
0.65865
9.12006
6.40238
1.6205
0
0
0
0
0
0
0
0
0
0
0
0
0
0
0
0
0
0
0
0
0
0
0
0
0
-0.504289
-0.660749
-0.618763
-0.657255
-0.691053
-0.793698
-0.931363
-1.09648
-1.28931
-1.44475
-1.44331
-1.15957
-0.739371
-0.238392
0.708978
0.617427
0.57481
0.525346
17.0417
10.6579
6.40238
1.6205
0
0
0
0
0
0
0
0
0
0
0
0
0
0
0
0
0
0
0
0
0
0
0
0
0
0
0
0
-0.52175
-0.550184
-0.52122
-0.58844
-0.647048
-0.704443
-0.813786
-0.987709
-1.18091
-1.31927
-1.18196
-0.601052
0.458918
0.947281
33.1876
24.5116
12.5596
4.9817
0
0
0
0
0
0
0
0
0
0
0
0
0
0
0
0
0
0
0
0
0
0
0
0
0
0
0
0
0
0
0
0
-0.490914
-0.454724
-0.496309
-0.50811
-0.569797
-0.615527
-0.674311
-0.820441
-0.962706
-1.06376
-0.6742
0.796962
6.42837
29.2496
0
0
0
0
0
0
0
0
0
0
0
0
0
0
0
0
0
0
0
0
0
0
0
0
0
0
0
0
0
0
0
0
0
0
0
0
-0.418124
-0.411741
-0.4452
-0.474145
-0.510576
-0.506823
-0.538856
-0.625494
-0.0344934
-0.0177418
0.641526
10.5285
26.3021
0
0
0
0
0
0
0
0
0
0
0
0
0
0
0
0
0
0
0
0
0
0
0
0
0
0
0
0
0
0
0
0
0
0
0
0
0
-0.360253
-0.389604
-0.396797
-0.434175
0.100454
0.154358
0.154942
0.183278
3.68586
5.32182
10.1738
27.2717
0
0
0
0
0
0
0
0
0
0
0
0
0
0
0
0
0
0
0
0
0
0
0
0
0
0
0
0
0
0
0
0
0
0
0
0
0
0
0.217566
0.19924
0.205614
0.319222
2.0473
3.83241
6.53548
7.89527
5.98596
8.49533
41.2731
0
0
0
0
0
0
0
0
0
0
0
0
0
0
0
0
0
0
0
0
0
0
0
0
0
0
0
0
0
0
0
0
0
0
0
0
0
0
0
7.92847
7.8928
8.04142
9.25902
7.69325
7.78758
9.09454
10.208
11.1703
21.7759
3.2041
0
0
0
0
0
0
0
0
0
0
0
0
0
0
0
0
0
0
0
0
0
0
0
0
0
0
0
0
0
0
0
0
0
0
0
0
0
0
0
7.92952
10.0992
10.1145
8.86149
11.2589
12.4355
10.8064
8.57914
8.60392
43.2779
0
0
0
0
0
0
0
0
0
0
0
0
0
0
0
0
0
0
0
0
0
0
0
0
0
0
0
0
0
0
0
0
0
0
0
0
0
0
0
0
13.2058
10.8439
11.0393
13.0106
10.7272
10.2862
9.48307
9.57063
8.67562
33.2233
0
0
0
0
0
0
0
0
0
0
0
0
0
0
0
0
0
0
0
0
0
0
0
0
0
0
0
0
0
0
0
0
0
0
0
0
0
0
0
0
8.71388
9.82855
9.83715
7.65861
8.9401
7.02241
6.34758
6.44313
5.90605
26.1906
0
0
0
0
0
0
0
0
0
0
0
0
0
0
0
0
0
0
0
0
0
0
0
0
0
0
0
0
0
0
0
0
0
0
0
0
0
0
0
0
7.061
5.55892
5.71513
6.83869
5.56628
5.6724
5.42452
5.43401
4.26976
17.1298
0
0
0
0
0
0
0
0
0
0
0
0
0
0
0
0
0
0
0
0
0
0
0
0
0
0
0
0
0
0
0
0
0
0
0
0
0
0
0
0
6.55202
6.55536
6.55982
5.31204
5.40986
6.30896
5.08555
5.09432
5.2091
10.3371
0
0
0
0
0
0
0
0
0
0
0
0
0
0
0
0
0
0
0
0
0
0
0
0
0
0
0
0
0
0
0
0
0
0
0
0
0
0
0
0
5.52783
5.53996
5.54196
5.54121
5.54439
4.52522
5.16545
5.22779
16.4546
0
0
0
0
0
0
0
0
0
0
0
0
0
0
0
0
0
0
0
0
0
0
0
0
0
0
0
0
0
0
0
0
0
0
0
0
0
0
0
0
0
3.60674
3.66202
3.98033
3.98143
3.98244
3.98396
3.23505
3.31189
11.5415
0
0
0
0
0
0
0
0
0
0
0
0
0
0
0
0
0
0
0
0
0
0
0
0
0
0
0
0
0
0
0
0
0
0
0
0
0
0
0
0
0
6.01719
6.36025
5.75447
5.75462
5.75506
5.75536
5.75588
5.76119
8.30564
0
0
0
0
0
0
0
0
0
0
0
0
0
0
0
0
0
0
0
0
0
0
0
0
0
0
0
0
0
0
0
0
0
0
0
0
0
0
0
0
0
3.29611
2.74112
2.74112
2.74112
2.74112
2.74112
2.74112
2.74112
2.74112
0
0
0
0
0
0
0
0
0
0
0
0
0
0
0
0
0
0
0
0
0
0
0
0
0
0
0
0
0
0
0
0
0
0
0
0
0
0
0
0
0
0
0
0
0
0
0
0
0
0
0
0
0
0
0
0
0
0
0
0
0
0
0
0
0
0
0
0
0
0
0
0
0
0
0
0
0
0
0
0
0
0
0
0
0
0
0
0
0
0
0
