# vtk DataFile Version 4.0
Nusif Fluid VTK output
ASCII
DATASET STRUCTURED_POINTS
DIMENSIONS 50 20 1
ORIGIN 0 0 0 
SPACING 0.2 0.2 1
POINT_DATA 1000 

VECTORS velocity double
0.0379463 -0.0426895  0
0.114299 -0.0426554  0
0.191269 -0.0424728  0
0.268147 -0.0423986  0
0.344648 -0.0420292  0
0.420483 -0.0415692  0
0.495469 -0.041168  0
0.570137 -0.0411545  0
0.64527 -0.0415328  0
0.721751 -0.0424059  0
0.800147 -0.0434186  0
0.880201 -0.0439893  0
0.959896 -0.0429614  0
1.03656 -0.0409352  0
1.10929 -0.0389429  0
1.17902 -0.0379233  0
1.24818 -0.0383678  0
1.31992 -0.040441  0
1.39605 -0.0427636  0
1.4745 -0.0427308  0
1.54611 -0.0359381  0
1.60775 -0.0327457  0
1.66604 -0.0325832  0
1.72339 -0.0318129  0
1.77986 -0.0316982  0
1.83432 -0.0298051  0
1.88673 -0.0296395  0
1.93699 -0.0276655  0
1.98516 -0.0275405  0
2.03282 -0.0271553  0
2.08071 -0.0277778  0
2.12955 -0.0281385  0
2.17788 -0.0272806  0
2.22418 -0.0260152  0
2.26687 -0.0238051  0
2.30549 -0.0218196  0
2.34059 -0.0202539  0
2.37403 -0.0202503  0
2.41034 -0.0230707  0
2.45491 -0.0285687  0
2.50678 -0.0303164  0
2.54525 -0.0151736  0
2.54611 0.00727226  0
2.51548 0.016324  0
2.4721 0.0200261  0
2.44856 0  0
1.22428 0  0
0 0  0
0 0  0
0 0  0
0.0380518 -0.127361  0
0.114623 -0.127321  0
0.191479 -0.126752  0
0.26816 -0.12663  0
0.344429 -0.125448  0
0.419556 -0.123842  0
0.493354 -0.122421  0
0.566427 -0.122209  0
0.639654 -0.123353  0
0.714247 -0.126111  0
0.791441 -0.129701  0
0.871441 -0.13206  0
0.950203 -0.127569  0
1.02418 -0.12117  0
1.09359 -0.11498  0
1.15991 -0.112074  0
1.22557 -0.113146  0
1.29378 -0.119692  0
1.36785 -0.127806  0
1.44773 -0.130088  0
1.51845 -0.104975  0
1.5762 -0.0971826  0
1.63338 -0.0976754  0
1.69152 -0.0962857  0
1.74951 -0.0957524  0
1.80579 -0.0905565  0
1.85986 -0.0894388  0
1.91165 -0.0839928  0
1.96145 -0.0832506  0
2.01016 -0.0818821  0
2.05833 -0.0831819  0
2.10642 -0.0837864  0
2.15375 -0.0813557  0
2.19928 -0.0778533  0
2.24209 -0.0715813  0
2.28162 -0.0661716  0
2.31789 -0.0613416  0
2.35194 -0.0607416  0
2.3861 -0.0670943  0
2.42391 -0.0810029  0
2.46794 -0.0878427  0
2.50963 -0.0518715  0
2.52179 0.0204045  0
2.51894 0.0296327  0
2.52196 0.0400523  0
2.48526 0.0200261  0
1.22428 0  0
0 0  0
0 0  0
0 0  0
0.0381069 -0.211256  0
0.11472 -0.211159  0
0.191013 -0.20987  0
0.266859 -0.209903  0
0.342039 -0.207465  0
0.415575 -0.2044  0
0.486951 -0.200944  0
0.556961 -0.20061  0
0.626707 -0.201861  0
0.697869 -0.207328  0
0.773123 -0.21482  0
0.853957 -0.221677  0
0.929312 -0.206005  0
0.996289 -0.19762  0
1.06218 -0.18782  0
1.12568 -0.18304  0
1.18831 -0.184456  0
1.25221 -0.194526  0
1.32105 -0.209896  0
1.39837 -0.21926  0
1.46951 -0.168173  0
1.52541 -0.154675  0
1.59223 -0.171207  0
1.64818 -0.143869  0
1.71285 -0.177855  0
1.76835 -0.127265  0
1.82425 -0.16973  0
1.88212 -0.120397  0
1.92868 -0.150237  0
1.98593 -0.127889  0
2.02856 -0.134996  0
2.07977 -0.138324  0
2.12261 -0.123964  0
2.16629 -0.131543  0
2.20925 -0.110637  0
2.248 -0.112372  0
2.2877 -0.0982077  0
2.32275 -0.100004  0
2.35625 -0.102522  0
2.38072 -0.114863  0
2.39678 -0.121116  0
2.40284 -0.0733959  0
2.45921 -0.0235657  0
2.51205 0.0133088  0
2.51524 0.0200261  0
1.26098 0.0200261  0
0 0  0
0 0  0
0 0  0
0 0  0
0.0379269 -0.294682  0
0.11372 -0.294214  0
0.18853 -0.291593  0
0.262092 -0.291357  0
0.334748 -0.287601  0
0.405475 -0.282373  0
0.474185 -0.276881  0
0.541167 -0.275563  0
0.607428 -0.27681  0
0.674231 -0.284267  0
0.744503 -0.297311  0
0.822868 -0.312296  0
0.892286 -0.270617  0
0.953357 -0.26802  0
1.01861 -0.255571  0
1.08937 -0.256534  0
1.15332 -0.244555  0
1.21305 -0.265074  0
1.26688 -0.269018  0
1.28619 -0.263805  0
1.384 -0.231039  0
1.53239 -0.0902377  0
1.58139 -0.106114  0
1.65586 -0.0793958  0
1.69996 -0.1138  0
1.76448 -0.0665132  0
1.8218 -0.10993  0
1.86672 -0.0640701  0
1.93777 -0.0945267  0
1.971 -0.073162  0
2.03807 -0.079592  0
2.07007 -0.0826758  0
2.11964 -0.0698893  0
2.15927 -0.0797047  0
2.19756 -0.0628612  0
2.24226 -0.0680201  0
2.27919 -0.05712  0
2.32413 -0.0595129  0
2.35917 -0.0584986  0
2.38581 -0.0624294  0
2.37105 -0.0635896  0
2.37595 -0.0366979  0
1.20142 -0.0366979  0
0 0  0
0 0  0
0 0  0
0 0  0
0 0  0
0 0  0
0 0  0
0.0371228 -0.373317  0
0.111108 -0.372303  0
0.182223 -0.366258  0
0.255605 -0.370499  0
0.321397 -0.353774  0
0.392382 -0.364811  0
0.457444 -0.335122  0
0.525158 -0.358985  0
0.59028 -0.331688  0
0.649138 -0.361995  0
0.704884 -0.352584  0
0.719922 -0.35738  0
0.82143 -0.32791  0
0.947925 -0.150634  0
1.01562 -0.143788  0
1.08046 -0.147644  0
1.15548 -0.134878  0
1.22234 -0.149799  0
1.24899 -0.144164  0
1.27393 -0.131903  0
0.643097 -0.131903  0
0 0  0
0 0  0
0 0  0
0 0  0
0 0  0
0 0  0
0 0  0
0 0  0
0 0  0
0 0  0
0 0  0
0 0  0
0 0  0
0 0  0
0 0  0
0 0  0
0 0  0
0 0  0
0 0  0
0 0  0
0 0  0
0 0  0
0 0  0
0 0  0
0 0  0
0 0  0
0 0  0
0 0  0
0 0  0
0.0364852 -0.20522  0
0.106143 -0.204582  0
0.182454 -0.200256  0
0.245568 -0.204813  0
0.321149 -0.190219  0
0.380095 -0.204566  0
0.455857 -0.177932  0
0.522145 -0.202979  0
0.588653 -0.174919  0
0.65803 -0.201352  0
0.682223 -0.183811  0
0.714801 -0.17869  0
0.359961 -0.17869  0
0 0  0
0 0  0
0 0  0
0 0  0
0 0  0
0 0  0
0 0  0
0 0  0
0 0  0
0 0  0
0 0  0
0 0  0
0 0  0
0 0  0
0 0  0
0 0  0
0 0  0
0 0  0
0 0  0
0 0  0
0 0  0
0 0  0
0 0  0
0 0  0
0 0  0
0 0  0
0 0  0
0 0  0
0 0  0
0 0  0
0 0  0
0 0  0
0 0  0
0 0  0
0 0  0
0 0  0
0 0  0
0 0  0
0 0  0
0 0  0
0 0  0
0 0  0
0 0  0
0 0  0
0 0  0
0 0  0
0 0  0
0 0  0
0 0  0
0 0  0
0 0  0
0 0  0
0 0  0
0 0  0
0 0  0
0 0  0
0 0  0
0 0  0
0 0  0
0 0  0
0 0  0
0 0  0
0 0  0
0 0  0
0 0  0
0 0  0
0 0  0
0 0  0
0 0  0
0 0  0
0 0  0
0 0  0
0 0  0
0 0  0
0 0  0
0 0  0
0 0  0
0 0  0
0 0  0
0 0  0
0 0  0
0 0  0
0 0  0
0 0  0
0 0  0
0 0  0
0 0  0
0 0  0
0 0  0
0 0  0
0 0  0
0 0  0
0 0  0
0 0  0
0 0  0
0 0  0
0 0  0
0 0  0
0 0  0
0 0  0
0 0  0
0 0  0
0 0  0
0 0  0
0 0  0
0 0  0
0 0  0
0 0  0
0 0  0
0 0  0
0 0  0
0 0  0
0 0  0
0 0  0
0 0  0
0 0  0
0 0  0
0 0  0
0 0  0
0 0  0
0 0  0
0 0  0
0 0  0
0 0  0
0 0  0
0 0  0
0 0  0
0 0  0
0 0  0
0 0  0
0 0  0
0 0  0
0 0  0
0 0  0
0 0  0
0 0  0
0 0  0
0 0  0
0 0  0
0 0  0
0 0  0
0 0  0
0 0  0
0 0  0
0 0  0
0 0  0
0 0  0
0 0  0
0 0  0
0 0  0
0 0  0
0 0  0
0 0  0
0 0  0
0 0  0
0 0  0
0 0  0
0 0  0
0 0  0
0 0  0
0 0  0
0 0  0
0 0  0
0 0  0
0 0  0
0 0  0
0 0  0
0 0  0
0 0  0
0 0  0
0 0  0
0 0  0
0 0  0
0 0  0
0 0  0
0 0  0
0 0  0
0 0  0
0 0  0
0 0  0
0 0  0
0 0  0
0 0  0
0 0  0
0 0  0
0 0  0
0 0  0
0 0  0
0 0  0
0 0  0
0 0  0
0 0  0
0 0  0
0 0  0
0 0  0
0 0  0
0 0  0
0 0  0
0 0  0
0 0  0
0 0  0
0 0  0
0 0  0
0 0  0
0 0  0
0 0  0
0 0  0
0 0  0
0 0  0
0 0  0
0 0  0
0 0  0
0 0  0
0 0  0
0 0  0
0 0  0
0 0  0
0 0  0
0 0  0
0 0  0
0 0  0
0 0  0
0 0  0
0 0  0
0 0  0
0 0  0
0 0  0
0 0  0
0 0  0
0 0  0
0 0  0
0 0  0
0 0  0
0 0  0
0 0  0
0 0  0
0 0  0
0 0  0
0 0  0
0 0  0
0 0  0
0 0  0
0 0  0
0 0  0
0 0  0
0 0  0
0 0  0
0 0  0
0 0  0
0 0  0
0 0  0
0 0  0
0 0  0
0 0  0
0 0  0
0 0  0
0 0  0
0 0  0
0 0  0
0 0  0
0 0  0
0 0  0
0 0  0
0 0  0
0 0  0
0 0  0
0 0  0
0 0  0
0 0  0
0 0  0
0 0  0
0 0  0
0 0  0
0 0  0
0 0  0
0 0  0
0 0  0
0 0  0
0 0  0
0 0  0
0 0  0
0 0  0
0 0  0
0 0  0
0 0  0
0 0  0
0 0  0
0 0  0
0 0  0
0 0  0
0 0  0
0 0  0
0 0  0
0 0  0
0 0  0
0 0  0
0 0  0
0 0  0
0 0  0
0 0  0
0 0  0
0 0  0
0 0  0
0 0  0
0 0  0
0 0  0
0 0  0
0 0  0
0 0  0
0 0  0
0 0  0
0 0  0
0 0  0
0 0  0
0 0  0
0 0  0
0 0  0
0 0  0
0 0  0
0 0  0
0 0  0
0 0  0
0 0  0
0 0  0
0 0  0
0 0  0
0 0  0
0 0  0
0 0  0
0 0  0
0 0  0
0 0  0
0 0  0
0 0  0
0 0  0
0 0  0
0 0  0
0 0  0
0 0  0
0 0  0
0 0  0
0 0  0
0 0  0
0 0  0
0 0  0
0 0  0
0 0  0
0 0  0
0 0  0
0 0  0
0 0  0
0 0  0
0 0  0
0 0  0
0 0  0
0 0  0
0 0  0
0 0  0
0 0  0
0 0  0
0 0  0
0 0  0
0 0  0
0 0  0
0 0  0
0 0  0
0 0  0
0 0  0
0 0  0
0 0  0
0 0  0
0 0  0
0 0  0
0 0  0
0 0  0
0 0  0
0 0  0
0 0  0
0 0  0
0 0  0
0 0  0
0 0  0
0 0  0
0 0  0
0 0  0
0 0  0
0 0  0
0 0  0
0 0  0
0 0  0
0 0  0
0 0  0
0 0  0
0 0  0
0 0  0
0 0  0
0 0  0
0 0  0
0 0  0
0 0  0
0 0  0
0 0  0
0 0  0
0 0  0
0 0  0
0 0  0
0 0  0
0 0  0
0 0  0
0 0  0
0 0  0
0 0  0
0 0  0
0 0  0
0 0  0
0 0  0
0 0  0
0 0  0
0 0  0
0 0  0
0 0  0
0 0  0
0 0  0
0 0  0
0 0  0
0 0  0
0 0  0
0 0  0
0 0  0
0 0  0
0 0  0
0 0  0
0 0  0
0 0  0
0 0  0
0 0  0
0 0  0
0 0  0
0 0  0
0 0  0
0 0  0
0 0  0
0 0  0
0 0  0
0 0  0
0 0  0
0 0  0
0 0  0
0 0  0
0 0  0
0 0  0
0 0  0
0 0  0
0 0  0
0 0  0
0 0  0
0 0  0
0 0  0
0 0  0
0 0  0
0 0  0
0 0  0
0 0  0
0 0  0
0 0  0
0 0  0
0 0  0
0 0  0
0 0  0
0 0  0
0 0  0
0 0  0
0 0  0
0 0  0
0 0  0
0 0  0
0 0  0
0 0  0
0 0  0
0 0  0
0 0  0
0 0  0
0 0  0
0 0  0
0 0  0
0 0  0
0 0  0
0 0  0
0 0  0
0 0  0
0 0  0
0 0  0
0 0  0
0 0  0
0 0  0
0 0  0
0 0  0
0 0  0
0 0  0
0 0  0
0 0  0
0 0  0
0 0  0
0 0  0
0 0  0
0 0  0
0 0  0
0 0  0
0 0  0
0 0  0
0 0  0
0 0  0
0 0  0
0 0  0
0 0  0
0 0  0
0 0  0
0 0  0
0 0  0
0 0  0
0 0  0
0 0  0
0 0  0
0 0  0
0 0  0
0 0  0
0 0  0
0 0  0
0 0  0
0 0  0
0 0  0
0 0  0
0 0  0
0 0  0
0 0  0
0 0  0
0 0  0
0 0  0
0 0  0
0 0  0
0 0  0
0 0  0
0 0  0
0 0  0
0 0  0
0 0  0
0 0  0
0 0  0
0 0  0
0 0  0
0 0  0
0 0  0
0 0  0
0 0  0
0 0  0
0 0  0
0 0  0
0 0  0
0 0  0
0 0  0
0 0  0
0 0  0
0 0  0
0 0  0
0 0  0
0 0  0
0 0  0
0 0  0
0 0  0
0 0  0
0 0  0
0 0  0
0 0  0
0 0  0
0 0  0
0 0  0
0 0  0
0 0  0
0 0  0
0 0  0
0 0  0
0 0  0
0 0  0
0 0  0
0 0  0
0 0  0
0 0  0
0 0  0
0 0  0
0 0  0
0 0  0
0 0  0
0 0  0
0 0  0
0 0  0
0 0  0
0 0  0
0 0  0
0 0  0
0 0  0
0 0  0
0 0  0
0 0  0
0 0  0
0 0  0
0 0  0
0 0  0
0 0  0
0 0  0
0 0  0
0 0  0
0 0  0
0 0  0
0 0  0
0 0  0
0 0  0
0 0  0
0 0  0
0 0  0
0 0  0
0 0  0
0 0  0
0 0  0
0 0  0
0 0  0
0 0  0
0 0  0
0 0  0
0 0  0
0 0  0
0 0  0
0 0  0
0 0  0
0 0  0
0 0  0
0 0  0
0 0  0
0 0  0
0 0  0
0 0  0
0 0  0
0 0  0
0 0  0
0 0  0
0 0  0
0 0  0
0 0  0
0 0  0
0 0  0
0 0  0
0 0  0
0 0  0
0 0  0
0 0  0
0 0  0
0 0  0
0 0  0
0 0  0
0 0  0
0 0  0
0 0  0
0 0  0
0 0  0
0 0  0
0 0  0
0 0  0
0 0  0
0 0  0
0 0  0
0 0  0
0 0  0
0 0  0
0 0  0
0 0  0
0 0  0
0 0  0
0 0  0
0 0  0
0 0  0
0 0  0
0 0  0
0 0  0
0 0  0
0 0  0
0 0  0
0 0  0
0 0  0
0 0  0
0 0  0
0 0  0
0 0  0
0 0  0
0 0  0
0 0  0
0 0  0
0 0  0
0 0  0
0 0  0
0 0  0
0 0  0
0 0  0
0 0  0
0 0  0
0 0  0
0 0  0
0 0  0
0 0  0
0 0  0
0 0  0
0 0  0
0 0  0
0 0  0
0 0  0
0 0  0
0 0  0
0 0  0
0 0  0
0 0  0
0 0  0
0 0  0
0 0  0
0 0  0
0 0  0
0 0  0
0 0  0
0 0  0
0 0  0
0 0  0
0 0  0
0 0  0
0 0  0
0 0  0
0 0  0
0 0  0
0 0  0
0 0  0
0 0  0

SCALARS pressure double 1
LOOKUP_TABLE default
0.865821
0.867426
0.868707
0.866584
0.864473
0.859218
0.851636
0.841255
0.827006
0.807192
0.780133
0.745908
0.707592
0.672978
0.64494
0.621616
0.599986
0.575645
0.54285
0.498315
0.446941
0.412352
0.393593
0.381229
0.377821
0.372174
0.373759
0.371129
0.373189
0.373359
0.374454
0.375848
0.375581
0.376499
0.376052
0.377437
0.377002
0.377885
0.37577
0.368255
0.347685
0.30785
0.266081
0.289139
0.384649
0.655672
0
0
0
0
0.651949
0.653857
0.654196
0.653121
0.650775
0.645975
0.638994
0.630018
0.616089
0.597352
0.569363
0.531097
0.484757
0.449319
0.423631
0.405262
0.386833
0.367188
0.336262
0.28688
0.216021
0.183623
0.174929
0.160111
0.16884
0.154078
0.167949
0.156784
0.165755
0.16297
0.1645
0.16823
0.165365
0.169649
0.167881
0.170735
0.170757
0.172927
0.17364
0.171251
0.15914
0.11107
0.00170253
0.00599034
-0.0227847
0
0
0
0
0
0.4224
0.424697
0.42458
0.4249
0.422058
0.419705
0.413085
0.407531
0.395035
0.380473
0.352347
0.305915
0.234493
0.200218
0.182074
0.175395
0.161958
0.155162
0.131945
0.0806561
-0.0588363
-0.0748751
-0.0429104
-0.0918995
-0.0208057
-0.0998519
-0.0160275
-0.083092
-0.0330097
-0.0556083
-0.0512992
-0.035682
-0.0558247
-0.0320222
-0.0487621
-0.0331763
-0.0396374
-0.0312381
-0.0283294
-0.018324
0
-0.0114403
0
0
0
0
0
0
0
0
0.177672
0.179313
0.17962
0.182239
0.177455
0.182479
0.171547
0.177206
0.162499
0.162199
0.137126
0.0880062
-0.0609435
-0.0720949
-0.0768269
-0.053566
-0.0760005
-0.0473325
-0.0524895
-0.0449085
0
0
0
0
0
0
0
0
0
0
0
0
0
0
0
0
0
0
0
0
0
0
0
0
0
0
0
0
0
0
-0.0751531
-0.0746578
-0.0756951
-0.0616616
-0.0849845
-0.0455821
-0.0945221
-0.0374751
-0.0927855
-0.0363543
-0.0619375
-0.0362216
0
0
0
0
0
0
0
0
0
0
0
0
0
0
0
0
0
0
0
0
0
0
0
0
0
0
0
0
0
0
0
0
0
0
0
0
0
0
0
0
0
0
0
0
0
0
0
0
0
0
0
0
0
0
0
0
0
0
0
0
0
0
0
0
0
0
0
0
0
0
0
0
0
0
0
0
0
0
0
0
0
0
0
0
0
0
0
0
0
0
0
0
0
0
0
0
0
0
0
0
0
0
0
0
0
0
0
0
0
0
0
0
0
0
0
0
0
0
0
0
0
0
0
0
0
0
0
0
0
0
0
0
0
0
0
0
0
0
0
0
0
0
0
0
0
0
0
0
0
0
0
0
0
0
0
0
0
0
0
0
0
0
0
0
0
0
0
0
0
0
0
0
0
0
0
0
0
0
0
0
0
0
0
0
0
0
0
0
0
0
0
0
0
0
0
0
0
0
0
0
0
0
0
0
0
0
0
0
0
0
0
0
0
0
0
0
0
0
0
0
0
0
0
0
0
0
0
0
0
0
0
0
0
0
0
0
0
0
0
0
0
0
0
0
0
0
0
0
0
0
0
0
0
0
0
0
0
0
0
0
0
0
0
0
0
0
0
0
0
0
0
0
0
0
0
0
0
0
0
0
0
0
0
0
0
0
0
0
0
0
0
0
0
0
0
0
0
0
0
0
0
0
0
0
0
0
0
0
0
0
0
0
0
0
0
0
0
0
0
0
0
0
0
0
0
0
0
0
0
0
0
0
0
0
0
0
0
0
0
0
0
0
0
0
0
0
0
0
0
0
0
0
0
0
0
0
0
0
0
0
0
0
0
0
0
0
0
0
0
0
0
0
0
0
0
0
0
0
0
0
0
0
0
0
0
0
0
0
0
0
0
0
0
0
0
0
0
0
0
0
0
0
0
0
0
0
0
0
0
0
0
0
0
0
0
0
0
0
0
0
0
0
0
0
0
0
0
0
0
0
0
0
0
0
0
0
0
0
0
0
0
0
0
0
0
0
0
0
0
0
0
0
0
0
0
0
0
0
0
0
0
0
0
0
0
0
0
0
0
0
0
0
0
0
0
0
0
0
0
0
0
0
0
0
0
0
0
0
0
0
0
0
0
0
0
0
0
0
0
0
0
0
0
0
0
0
0
0
0
0
0
0
0
0
0
0
0
0
0
0
0
0
0
0
0
0
0
0
0
0
0
0
0
0
0
0
0
0
0
0
0
0
0
0
0
0
0
0
0
0
0
0
0
0
0
0
0
0
0
0
0
0
0
0
0
0
0
0
0
0
0
0
0
0
0
0
0
0
0
0
0
0
0
0
0
0
0
0
0
0
0
0
0
0
0
0
0
0
0
0
0
0
0
0
0
0
0
0
0
0
0
0
0
0
0
0
0
0
0
0
0
0
0
0
0
0
0
0
0
0
0
0
0
0
0
0
0
0
0
0
0
0
0
0
0
0
0
0
0
0
0
0
0
0
0
0
0
0
0
0
0
0
0
0
0
0
0
0
0
0
0
0
0
0
0
0
0
0
0
0
0
0
0
0
0
0
0
0
0
0
0
0
0
0
0
0
0
0
0
0
0
0
0
0
0
0
0
0
0
0
0
0
0
0
0
0
0
0
0
0
0
0
0
0
0
0
0
0
0
0
0
0
0
0
0
0
0
0
0
0
0
0
0
0
0
0
0
0
0
0
0
0
0
0
0
0
0
0
0
0
0
0
0
0
0
0
0
0
0
0
0
0
0
0
0
0
0
0
0
0
0
0
0
0
0
0
0
0
SCALARS rhs double 1
LOOKUP_TABLE default
-5.61347
-5.53047
-5.54618
-5.47834
-5.50264
-5.49049
-5.46453
-5.4548
-5.4654
-5.48015
-5.49426
-5.50732
-5.49948
-5.45484
-5.41726
-5.38923
-5.39881
-5.43005
-5.46114
-5.45905
-5.35653
-5.32119
-5.31104
-5.30271
-5.28319
-5.27206
-5.25147
-5.24262
-5.23346
-5.23786
-5.24304
-5.24037
-5.23167
-5.19184
-5.19474
-5.17039
-5.15091
-5.18081
-5.19956
-5.24899
-5.19364
-4.9683
-4.98884
-5.26742
-5.79799
0.879021
0
0
0
0
-0.447761
-0.422612
-0.401224
-0.394008
-0.423681
-0.376904
-0.374441
-0.382039
-0.378472
-0.392557
-0.412273
-0.4401
-0.417445
-0.37149
-0.331774
-0.323093
-0.326544
-0.36378
-0.408339
-0.400665
-0.137019
-0.152784
-0.127669
-0.187518
-0.0997126
-0.182145
-0.0783004
-0.135242
-0.0765048
-0.0968462
-0.0919904
-0.0747728
-0.0782804
-0.0523204
-0.0535425
-0.0304462
-0.036424
-0.0275177
-0.0632375
-0.0606236
-0.165552
0.325059
2.41702
2.87662
1.83714
0
0
0
0
0
-0.394567
-0.41738
-0.375012
-0.406137
-0.382904
-0.360985
-0.354766
-0.353206
-0.341267
-0.357783
-0.400944
-0.435519
-0.192649
-0.167942
-0.148557
-0.132312
-0.169712
-0.16176
-0.207202
-0.186512
2.21013
2.25306
1.65056
1.55302
2.26301
5.57444
5.59606
5.43878
13.6031
13.7886
12.7451
11.3443
9.41594
7.33698
7.68665
8.76878
8.75437
6.77023
2.81656
2.78683
2.57592
0.879021
0
0
0
0
0
0
0
0
-0.178812
-0.209142
-0.189012
-0.186183
-0.189098
-0.148157
-0.189159
-0.11118
-0.18678
-0.126436
-0.18494
-0.146623
2.12935
1.78828
6.89287
9.07394
10.7861
13.6474
34.455
28.0712
21.0289
16.247
13.5584
10.8402
10.7865
8.4957
6.05141
2.40646
0
0
0
0
0
0
0
0
0
0
0
0
0
0
0
0
0
0
0
0
0
0
2.7123
2.68488
2.79873
2.75731
2.15529
1.69221
1.73277
2.46582
3.89885
8.22277
8.47921
8.25324
9.26158
8.97228
43.8307
32.8547
19.5017
9.00999
0
0
0
0
0
0
0
0
0
0
0
0
0
0
0
0
0
0
0
0
0
0
0
0
0
0
0
0
0
0
0
0
6.36602
6.31525
5.9657
5.40632
4.81609
4.65051
4.54086
5.49725
6.68708
4.04255
4.68643
4.81997
12.4974
35.3186
0
0
0
0
0
0
0
0
0
0
0
0
0
0
0
0
0
0
0
0
0
0
0
0
0
0
0
0
0
0
0
0
0
0
0
0
1.47614
1.54411
2.09799
2.47435
3.77929
5.12603
6.33856
5.10183
2.09579
1.47098
2.53607
14.3387
26.3021
0
0
0
0
0
0
0
0
0
0
0
0
0
0
0
0
0
0
0
0
0
0
0
0
0
0
0
0
0
0
0
0
0
0
0
0
0
2.59543
2.54951
1.62039
1.22694
0.49828
0.777197
0.916648
3.70181
7.89906
8.9678
11.6117
27.2717
0
0
0
0
0
0
0
0
0
0
0
0
0
0
0
0
0
0
0
0
0
0
0
0
0
0
0
0
0
0
0
0
0
0
0
0
0
0
2.45787
2.59584
4.01582
4.53242
6.43299
7.47839
9.23983
7.89527
5.98596
8.49533
41.2731
0
0
0
0
0
0
0
0
0
0
0
0
0
0
0
0
0
0
0
0
0
0
0
0
0
0
0
0
0
0
0
0
0
0
0
0
0
0
0
9.36633
9.33066
8.04142
9.25902
7.69325
7.78758
9.09454
10.208
11.1703
21.7759
3.2041
0
0
0
0
0
0
0
0
0
0
0
0
0
0
0
0
0
0
0
0
0
0
0
0
0
0
0
0
0
0
0
0
0
0
0
0
0
0
0
7.92952
10.0992
10.1145
8.86149
11.2589
12.4355
10.8064
8.57914
8.60392
43.2779
0
0
0
0
0
0
0
0
0
0
0
0
0
0
0
0
0
0
0
0
0
0
0
0
0
0
0
0
0
0
0
0
0
0
0
0
0
0
0
0
13.2058
10.8439
11.0393
13.0106
10.7272
10.2862
9.48307
9.57063
8.67562
33.2233
0
0
0
0
0
0
0
0
0
0
0
0
0
0
0
0
0
0
0
0
0
0
0
0
0
0
0
0
0
0
0
0
0
0
0
0
0
0
0
0
8.71388
9.82855
9.83715
7.65861
8.9401
7.02241
6.34758
6.44313
5.90605
26.1906
0
0
0
0
0
0
0
0
0
0
0
0
0
0
0
0
0
0
0
0
0
0
0
0
0
0
0
0
0
0
0
0
0
0
0
0
0
0
0
0
7.061
5.55892
5.71513
6.83869
5.56628
5.6724
5.42452
5.43401
4.26976
17.1298
0
0
0
0
0
0
0
0
0
0
0
0
0
0
0
0
0
0
0
0
0
0
0
0
0
0
0
0
0
0
0
0
0
0
0
0
0
0
0
0
6.55202
6.55536
6.55982
5.31204
5.40986
6.30896
5.08555
5.09432
5.2091
10.3371
0
0
0
0
0
0
0
0
0
0
0
0
0
0
0
0
0
0
0
0
0
0
0
0
0
0
0
0
0
0
0
0
0
0
0
0
0
0
0
0
5.52783
5.53996
5.54196
5.54121
5.54439
4.52522
5.16545
5.22779
16.4546
0
0
0
0
0
0
0
0
0
0
0
0
0
0
0
0
0
0
0
0
0
0
0
0
0
0
0
0
0
0
0
0
0
0
0
0
0
0
0
0
0
3.60674
3.66202
3.98033
3.98143
3.98244
3.98396
3.23505
3.31189
11.5415
0
0
0
0
0
0
0
0
0
0
0
0
0
0
0
0
0
0
0
0
0
0
0
0
0
0
0
0
0
0
0
0
0
0
0
0
0
0
0
0
0
6.01719
6.36025
5.75447
5.75462
5.75506
5.75536
5.75588
5.76119
8.30564
0
0
0
0
0
0
0
0
0
0
0
0
0
0
0
0
0
0
0
0
0
0
0
0
0
0
0
0
0
0
0
0
0
0
0
0
0
0
0
0
0
3.29611
2.74112
2.74112
2.74112
2.74112
2.74112
2.74112
2.74112
2.74112
0
0
0
0
0
0
0
0
0
0
0
0
0
0
0
0
0
0
0
0
0
0
0
0
0
0
0
0
0
0
0
0
0
0
0
0
0
0
0
0
0
0
0
0
0
0
0
0
0
0
0
0
0
0
0
0
0
0
0
0
0
0
0
0
0
0
0
0
0
0
0
0
0
0
0
0
0
0
0
0
0
0
0
0
0
0
0
0
0
0
0
