# vtk DataFile Version 4.0
Nusif Fluid VTK output
ASCII
DATASET STRUCTURED_POINTS
DIMENSIONS 50 20 1
ORIGIN 0 0 0 
SPACING 0.2 0.2 1
POINT_DATA 1000 

VECTORS velocity double
0.0556353 -0.0602304  0
0.167116 -0.0610468  0
0.280396 -0.0626896  0
0.397653 -0.0651324  0
0.520452 -0.0683451  0
0.650275 -0.0722711  0
0.7884 -0.0767588  0
0.935647 -0.0815044  0
1.09194 -0.0859094  0
1.25569 -0.0890693  0
1.42308 -0.0896321  0
1.58728 -0.0859686  0
1.73869 -0.0769072  0
1.86644 -0.0623734  0
1.9603 -0.043061  0
2.01408 -0.0223303  0
2.03214 -0.00736283  0
2.02527 0.0025883  0
2.03045 -0.0135884  0
1.02202 0.0382184  0
0 0  0
0 0  0
0 0  0
0 0  0
0 0  0
0 0  0
0 0  0
0 0  0
0 0  0
0 0  0
0 0  0
0 0  0
0 0  0
0 0  0
0 0  0
0 0  0
0 0  0
0 0  0
0 0  0
0 0  0
0 0  0
0 0  0
0 0  0
0 0  0
0 0  0
0 0  0
0 0  0
0 0  0
0 0  0
0 0  0
0.0547524 -0.180417  0
0.164499 -0.182819  0
0.276049 -0.187679  0
0.391493 -0.194909  0
0.512373 -0.204449  0
0.640189 -0.216145  0
0.776236 -0.229532  0
0.921326 -0.243675  0
1.07537 -0.256806  0
1.23675 -0.266157  0
1.40133 -0.267478  0
1.56163 -0.255676  0
1.70709 -0.2272  0
1.82661 -0.182556  0
1.91065 -0.124027  0
1.95316 -0.0609295  0
1.96122 -0.0181869  0
1.94963 0.0143892  0
1.94042 -0.0271768  0
0.970211 0.02463  0
0 0  0
0 0  0
0 0  0
0 0  0
0 0  0
0 0  0
0 0  0
0 0  0
0 0  0
0 0  0
0 0  0
0 0  0
0 0  0
0 0  0
0 0  0
0 0  0
0 0  0
0 0  0
0 0  0
0 0  0
0 0  0
0 0  0
0 0  0
0 0  0
0 0  0
0 0  0
0 0  0
0 0  0
0 0  0
0 0  0
0.053079 -0.298714  0
0.159509 -0.30264  0
0.267709 -0.310583  0
0.379664 -0.322426  0
0.496924 -0.338142  0
0.621012 -0.357469  0
0.753236 -0.379635  0
0.894426 -0.40305  0
1.04451 -0.424796  0
1.20169 -0.43999  0
1.36117 -0.441016  0
1.51405 -0.418642  0
1.64772 -0.366706  0
1.75016 -0.28837  0
1.81043 -0.185878  0
1.8349 -0.0894064  0
1.84127 -0.0216481  0
1.91624 0.00097679  0
1.96581 -0.0135884  0
0.970211 -0.0135884  0
0 0  0
0 0  0
0 0  0
0 0  0
0 0  0
0 0  0
0 0  0
0 0  0
0 0  0
0 0  0
0 0  0
0 0  0
0 0  0
0 0  0
0 0  0
0 0  0
0 0  0
0 0  0
0 0  0
0 0  0
0 0  0
0 0  0
0 0  0
0 0  0
0 0  0
0 0  0
0 0  0
0 0  0
0 0  0
0 0  0
0.0506468 -0.413025  0
0.152219 -0.418421  0
0.255487 -0.4293  0
0.362363 -0.445608  0
0.474407 -0.467375  0
0.593116 -0.494186  0
0.719805 -0.525022  0
0.855368 -0.557645  0
0.999748 -0.587931  0
1.15079 -0.60837  0
1.30249 -0.607149  0
1.4433 -0.569555  0
1.5584 -0.487932  0
1.636 -0.370575  0
1.65274 -0.198214  0
1.64113 -0.101614  0
1.7412 -0.0616312  0
0.920637 -0.0108241  0
0 0  0
0 0  0
0 0  0
0 0  0
0 0  0
0 0  0
0 0  0
0 0  0
0 0  0
0 0  0
0 0  0
0 0  0
0 0  0
0 0  0
0 0  0
0 0  0
0 0  0
0 0  0
0 0  0
0 0  0
0 0  0
0 0  0
0 0  0
0 0  0
0 0  0
0 0  0
0 0  0
0 0  0
0 0  0
0 0  0
0 0  0
0 0  0
0.0474918 -0.521872  0
0.142748 -0.528642  0
0.239616 -0.542297  0
0.339917 -0.562905  0
0.445116 -0.590475  0
0.556656 -0.624523  0
0.675945 -0.663887  0
0.804071 -0.705728  0
0.941026 -0.744475  0
1.08398 -0.769142  0
1.22437 -0.761833  0
1.34433 -0.699022  0
1.42584 -0.578475  0
1.45542 -0.404773  0
1.50578 -0.295688  0
1.59864 -0.0508071  0
0.820565 -0.0508071  0
0 0  0
0 0  0
0 0  0
0 0  0
0 0  0
0 0  0
0 0  0
0 0  0
0 0  0
0 0  0
0 0  0
0 0  0
0 0  0
0 0  0
0 0  0
0 0  0
0 0  0
0 0  0
0 0  0
0 0  0
0 0  0
0 0  0
0 0  0
0 0  0
0 0  0
0 0  0
0 0  0
0 0  0
0 0  0
0 0  0
0 0  0
0 0  0
0 0  0
0.0436768 -0.623875  0
0.131304 -0.631915  0
0.220413 -0.648134  0
0.312599 -0.672718  0
0.409206 -0.705661  0
0.511747 -0.746641  0
0.621827 -0.794394  0
0.740731 -0.845539  0
0.868518 -0.892724  0
1.00171 -0.920383  0
1.12813 -0.900789  0
1.21529 -0.790607  0
1.24323 -0.613912  0
1.34933 -0.509343  0
0.727711 -0.202387  0
0 0  0
0 0  0
0 0  0
0 0  0
0 0  0
0 0  0
0 0  0
0 0  0
0 0  0
0 0  0
0 0  0
0 0  0
0 0  0
0 0  0
0 0  0
0 0  0
0 0  0
0 0  0
0 0  0
0 0  0
0 0  0
0 0  0
0 0  0
0 0  0
0 0  0
0 0  0
0 0  0
0 0  0
0 0  0
0 0  0
0 0  0
0 0  0
0 0  0
0 0  0
0 0  0
0.0393212 -0.717835  0
0.118157 -0.726964  0
0.198185 -0.745403  0
0.280776 -0.773433  0
0.36721 -0.811219  0
0.459005 -0.858678  0
0.557826 -0.914542  0
0.665252 -0.975032  0
0.781773 -1.03088  0
0.903996 -1.06101  0
1.02 -1.02598  0
1.12453 -0.874681  0
1.20902 -0.621736  0
0.621617 -0.306956  0
0 0  0
0 0  0
0 0  0
0 0  0
0 0  0
0 0  0
0 0  0
0 0  0
0 0  0
0 0  0
0 0  0
0 0  0
0 0  0
0 0  0
0 0  0
0 0  0
0 0  0
0 0  0
0 0  0
0 0  0
0 0  0
0 0  0
0 0  0
0 0  0
0 0  0
0 0  0
0 0  0
0 0  0
0 0  0
0 0  0
0 0  0
0 0  0
0 0  0
0 0  0
0 0  0
0 0  0
0.0345125 -0.802756  0
0.103626 -0.812688  0
0.173551 -0.83286  0
0.245371 -0.863635  0
0.320172 -0.905519  0
0.399349 -0.958638  0
0.484573 -1.02193  0
0.577734 -1.09156  0
0.679488 -1.15598  0
0.78333 -1.18535  0
0.856818 -1.11454  0
0.879408 -0.924953  0
0.439704 -0.777257  0
0 0  0
0 0  0
0 0  0
0 0  0
0 0  0
0 0  0
0 0  0
0 0  0
0 0  0
0 0  0
0 0  0
0 0  0
0 0  0
0 0  0
0 0  0
0 0  0
0 0  0
0 0  0
0 0  0
0 0  0
0 0  0
0 0  0
0 0  0
0 0  0
0 0  0
0 0  0
0 0  0
0 0  0
0 0  0
0 0  0
0 0  0
0 0  0
0 0  0
0 0  0
0 0  0
0 0  0
0 0  0
0.029485 -0.877964  0
0.088404 -0.888355  0
0.147653 -0.90964  0
0.2079 -0.942208  0
0.269865 -0.987013  0
0.334757 -1.04453  0
0.404056 -1.1139  0
0.479924 -1.19197  0
0.564342 -1.26511  0
0.653177 -1.29229  0
0.736185 -1.18165  0
0.827129 -0.945661  0
0.439704 -0.462476  0
0 0  0
0 0  0
0 0  0
0 0  0
0 0  0
0 0  0
0 0  0
0 0  0
0 0  0
0 0  0
0 0  0
0 0  0
0 0  0
0 0  0
0 0  0
0 0  0
0 0  0
0 0  0
0 0  0
0 0  0
0 0  0
0 0  0
0 0  0
0 0  0
0 0  0
0 0  0
0 0  0
0 0  0
0 0  0
0 0  0
0 0  0
0 0  0
0 0  0
0 0  0
0 0  0
0 0  0
0 0  0
0.0246756 -0.943454  0
0.0736603 -0.953752  0
0.122326 -0.975471  0
0.170999 -1.00862  0
0.219651 -1.05455  0
0.269268 -1.11484  0
0.320676 -1.18764  0
0.37541 -1.27219  0
0.435276 -1.35254  0
0.49372 -1.37552  0
0.520906 -1.22031  0
0.260453 -1.09334  0
0 0  0
0 0  0
0 0  0
0 0  0
0 0  0
0 0  0
0 0  0
0 0  0
0 0  0
0 0  0
0 0  0
0 0  0
0 0  0
0 0  0
0 0  0
0 0  0
0 0  0
0 0  0
0 0  0
0 0  0
0 0  0
0 0  0
0 0  0
0 0  0
0 0  0
0 0  0
0 0  0
0 0  0
0 0  0
0 0  0
0 0  0
0 0  0
0 0  0
0 0  0
0 0  0
0 0  0
0 0  0
0 0  0
0.0208723 -1.00044  0
0.0612719 -1.00926  0
0.100425 -1.03113  0
0.139249 -1.06381  0
0.175583 -1.1077  0
0.210356 -1.16943  0
0.24446 -1.24191  0
0.277791 -1.32934  0
0.311337 -1.41217  0
0.355915 -1.43645  0
0.45236 -1.27402  0
0.260453 -0.610156  0
0 0  0
0 0  0
0 0  0
0 0  0
0 0  0
0 0  0
0 0  0
0 0  0
0 0  0
0 0  0
0 0  0
0 0  0
0 0  0
0 0  0
0 0  0
0 0  0
0 0  0
0 0  0
0 0  0
0 0  0
0 0  0
0 0  0
0 0  0
0 0  0
0 0  0
0 0  0
0 0  0
0 0  0
0 0  0
0 0  0
0 0  0
0 0  0
0 0  0
0 0  0
0 0  0
0 0  0
0 0  0
0 0  0
0.0197784 -1.05264  0
0.0542952 -1.05523  0
0.0854673 -1.07889  0
0.118169 -1.11096  0
0.146835 -1.14892  0
0.171362 -1.21088  0
0.194671 -1.28124  0
0.213515 -1.36555  0
0.226072 -1.44542  0
0.239082 -1.47247  0
0.1236 -1.38543  0
0 0  0
0 0  0
0 0  0
0 0  0
0 0  0
0 0  0
0 0  0
0 0  0
0 0  0
0 0  0
0 0  0
0 0  0
0 0  0
0 0  0
0 0  0
0 0  0
0 0  0
0 0  0
0 0  0
0 0  0
0 0  0
0 0  0
0 0  0
0 0  0
0 0  0
0 0  0
0 0  0
0 0  0
0 0  0
0 0  0
0 0  0
0 0  0
0 0  0
0 0  0
0 0  0
0 0  0
0 0  0
0 0  0
0 0  0
0.0197847 -1.10383  0
0.0536078 -1.08986  0
0.0852988 -1.11882  0
0.115328 -1.14545  0
0.146856 -1.18632  0
0.178114 -1.24096  0
0.1974 -1.30544  0
0.211541 -1.38601  0
0.214123 -1.45177  0
0.209743 -1.48058  0
0.104871 -1.46185  0
0 0  0
0 0  0
0 0  0
0 0  0
0 0  0
0 0  0
0 0  0
0 0  0
0 0  0
0 0  0
0 0  0
0 0  0
0 0  0
0 0  0
0 0  0
0 0  0
0 0  0
0 0  0
0 0  0
0 0  0
0 0  0
0 0  0
0 0  0
0 0  0
0 0  0
0 0  0
0 0  0
0 0  0
0 0  0
0 0  0
0 0  0
0 0  0
0 0  0
0 0  0
0 0  0
0 0  0
0 0  0
0 0  0
0 0  0
0 -1.12945  0
0.0501118 -1.11667  0
0.112265 -0.568238  0
0.149825 -0.578916  0
0.194474 -0.602735  0
0.231687 -0.626533  0
0.267355 -0.656308  0
0.278926 -0.696489  0
0.257926 -0.723693  0
0.226341 -0.740292  0
0.104871 -0.740292  0
0 0  0
0 0  0
0 0  0
0 0  0
0 0  0
0 0  0
0 0  0
0 0  0
0 0  0
0 0  0
0 0  0
0 0  0
0 0  0
0 0  0
0 0  0
0 0  0
0 0  0
0 0  0
0 0  0
0 0  0
0 0  0
0 0  0
0 0  0
0 0  0
0 0  0
0 0  0
0 0  0
0 0  0
0 0  0
0 0  0
0 0  0
0 0  0
0 0  0
0 0  0
0 0  0
0 0  0
0 0  0
0 0  0
0 0  0
0 -0.564726  0
0 -0.564726  0
0 0  0
0 0  0
0 0  0
0 0  0
0 0  0
0 0  0
0 0  0
0 0  0
0 0  0
0 0  0
0 0  0
0 0  0
0 0  0
0 0  0
0 0  0
0 0  0
0 0  0
0 0  0
0 0  0
0 0  0
0 0  0
0 0  0
0 0  0
0 0  0
0 0  0
0 0  0
0 0  0
0 0  0
0 0  0
0 0  0
0 0  0
0 0  0
0 0  0
0 0  0
0 0  0
0 0  0
0 0  0
0 0  0
0 0  0
0 0  0
0 0  0
0 0  0
0 0  0
0 0  0
0 0  0
0 0  0
0 0  0
0 0  0
0 0  0
0 0  0
0 0  0
0 0  0
0 0  0
0 0  0
0 0  0
0 0  0
0 0  0
0 0  0
0 0  0
0 0  0
0 0  0
0 0  0
0 0  0
0 0  0
0 0  0
0 0  0
0 0  0
0 0  0
0 0  0
0 0  0
0 0  0
0 0  0
0 0  0
0 0  0
0 0  0
0 0  0
0 0  0
0 0  0
0 0  0
0 0  0
0 0  0
0 0  0
0 0  0
0 0  0
0 0  0
0 0  0
0 0  0
0 0  0
0 0  0
0 0  0
0 0  0
0 0  0
0 0  0
0 0  0
0 0  0
0 0  0
0 0  0
0 0  0
0 0  0
0 0  0
0 0  0
0 0  0
0 0  0
0 0  0
0 0  0
0 0  0
0 0  0
0 0  0
0 0  0
0 0  0
0 0  0
0 0  0
0 0  0
0 0  0
0 0  0
0 0  0
0 0  0
0 0  0
0 0  0
0 0  0
0 0  0
0 0  0
0 0  0
0 0  0
0 0  0
0 0  0
0 0  0
0 0  0
0 0  0
0 0  0
0 0  0
0 0  0
0 0  0
0 0  0
0 0  0
0 0  0
0 0  0
0 0  0
0 0  0
0 0  0
0 0  0
0 0  0
0 0  0
0 0  0
0 0  0
0 0  0
0 0  0
0 0  0
0 0  0
0 0  0
0 0  0
0 0  0
0 0  0
0 0  0
0 0  0
0 0  0
0 0  0
0 0  0
0 0  0
0 0  0
0 0  0
0 0  0
0 0  0
0 0  0
0 0  0
0 0  0
0 0  0
0 0  0
0 0  0
0 0  0
0 0  0
0 0  0
0 0  0
0 0  0
0 0  0
0 0  0
0 0  0
0 0  0
0 0  0
0 0  0
0 0  0
0 0  0
0 0  0
0 0  0
0 0  0
0 0  0
0 0  0
0 0  0
0 0  0
0 0  0
0 0  0
0 0  0
0 0  0
0 0  0
0 0  0
0 0  0
0 0  0
0 0  0
0 0  0
0 0  0
0 0  0
0 0  0
0 0  0
0 0  0
0 0  0
0 0  0
0 0  0
0 0  0
0 0  0
0 0  0
0 0  0
0 0  0
0 0  0
0 0  0
0 0  0
0 0  0
0 0  0
0 0  0
0 0  0
0 0  0
0 0  0
0 0  0
0 0  0
0 0  0
0 0  0
0 0  0
0 0  0
0 0  0
0 0  0
0 0  0
0 0  0
0 0  0
0 0  0
0 0  0
0 0  0
0 0  0
0 0  0
0 0  0
0 0  0
0 0  0
0 0  0
0 0  0
0 0  0
0 0  0
0 0  0
0 0  0
0 0  0
0 0  0
0 0  0
0 0  0
0 0  0
0 0  0
0 0  0
0 0  0
0 0  0
0 0  0
0 0  0
0 0  0
0 0  0
0 0  0
0 0  0
0 0  0
0 0  0
0 0  0
0 0  0
0 0  0
0 0  0
0 0  0
0 0  0
0 0  0
0 0  0
0 0  0
0 0  0
0 0  0
0 0  0
0 0  0
0 0  0
0 0  0
0 0  0
0 0  0
0 0  0
0 0  0
0 0  0
0 0  0
0 0  0
0 0  0
0 0  0
0 0  0
0 0  0
0 0  0
0 0  0
0 0  0
0 0  0
0 0  0
0 0  0
0 0  0
0 0  0
0 0  0

SCALARS pressure double 1
LOOKUP_TABLE default
2.85946
2.84102
2.81033
2.76675
2.70825
2.63195
2.53422
2.41084
2.25751
2.07085
1.85005
1.59917
1.32912
1.05701
0.801635
0.575759
0.375347
0.191183
0
0
0
0
0
0
0
0
0
0
0
0
0
0
0
0
0
0
0
0
0
0
0
0
0
0
0
0
0
0
0
0
2.63455
2.61671
2.58664
2.5436
2.48546
2.40924
2.31112
2.18666
2.03137
1.84174
1.61709
1.36218
1.08929
0.817357
0.567606
0.356712
0.167564
0
-0.0292359
0
0
0
0
0
0
0
0
0
0
0
0
0
0
0
0
0
0
0
0
0
0
0
0
0
0
0
0
0
0
0
2.39942
2.38229
2.35299
2.31066
2.25305
2.17693
2.07814
1.9518
1.79289
1.59747
1.36497
1.10143
0.821928
0.54806
0.304975
0.138716
-0.0522802
0
0
0
0
0
0
0
0
0
0
0
0
0
0
0
0
0
0
0
0
0
0
0
0
0
0
0
0
0
0
0
0
0
2.15631
2.13996
2.11162
2.07029
2.01353
1.93781
1.83851
1.71006
1.54657
1.34331
1.09981
0.824505
0.537765
0.260526
0
-0.0014143
0
0
0
0
0
0
0
0
0
0
0
0
0
0
0
0
0
0
0
0
0
0
0
0
0
0
0
0
0
0
0
0
0
0
1.90741
1.89198
1.86487
1.82497
1.76967
1.69512
1.59615
1.46634
1.29855
1.08677
0.830421
0.542332
0.257008
0.00309683
0
0
0
0
0
0
0
0
0
0
0
0
0
0
0
0
0
0
0
0
0
0
0
0
0
0
0
0
0
0
0
0
0
0
0
0
1.65527
1.64088
1.61534
1.57746
1.52453
1.45247
1.35557
1.22646
1.05658
0.83811
0.568973
0.265485
0.00239659
0
0
0
0
0
0
0
0
0
0
0
0
0
0
0
0
0
0
0
0
0
0
0
0
0
0
0
0
0
0
0
0
0
0
0
0
0
1.40255
1.38932
1.3657
1.33055
1.2812
1.21345
1.1212
0.996383
0.829328
0.610832
0.335017
0
0
0
0
0
0
0
0
0
0
0
0
0
0
0
0
0
0
0
0
0
0
0
0
0
0
0
0
0
0
0
0
0
0
0
0
0
0
0
1.15189
1.13985
1.11843
1.08675
1.04234
0.981047
0.896688
0.780888
0.62379
0.419731
0.18757
0.0851886
0
0
0
0
0
0
0
0
0
0
0
0
0
0
0
0
0
0
0
0
0
0
0
0
0
0
0
0
0
0
0
0
0
0
0
0
0
0
0.905856
0.894728
0.875558
0.848
0.80993
0.757401
0.684418
0.582445
0.439713
0.243298
0
0
0
0
0
0
0
0
0
0
0
0
0
0
0
0
0
0
0
0
0
0
0
0
0
0
0
0
0
0
0
0
0
0
0
0
0
0
0
0
0.667036
0.655624
0.638287
0.615373
0.585058
0.543611
0.485749
0.404305
0.289201
0.137624
0.0410946
0
0
0
0
0
0
0
0
0
0
0
0
0
0
0
0
0
0
0
0
0
0
0
0
0
0
0
0
0
0
0
0
0
0
0
0
0
0
0
0.438807
0.423018
0.406526
0.388836
0.36796
0.339572
0.299668
0.24374
0.160701
0.0429081
0
0
0
0
0
0
0
0
0
0
0
0
0
0
0
0
0
0
0
0
0
0
0
0
0
0
0
0
0
0
0
0
0
0
0
0
0
0
0
0
0.228069
0.19372
0.17808
0.166895
0.158709
0.14465
0.124151
0.101037
0.0614948
0.0119095
0
0
0
0
0
0
0
0
0
0
0
0
0
0
0
0
0
0
0
0
0
0
0
0
0
0
0
0
0
0
0
0
0
0
0
0
0
0
0
0
0.0552287
-0.031193
-0.0318012
-0.0349335
-0.0207193
-0.0203435
-0.0254824
-0.00208865
8.6148e-05
-0.0288142
0
0
0
0
0
0
0
0
0
0
0
0
0
0
0
0
0
0
0
0
0
0
0
0
0
0
0
0
0
0
0
0
0
0
0
0
0
0
0
0
-0.00191735
0
0
0
0
0
0
0
0
0
0
0
0
0
0
0
0
0
0
0
0
0
0
0
0
0
0
0
0
0
0
0
0
0
0
0
0
0
0
0
0
0
0
0
0
0
0
0
0
0
0
0
0
0
0
0
0
0
0
0
0
0
0
0
0
0
0
0
0
0
0
0
0
0
0
0
0
0
0
0
0
0
0
0
0
0
0
0
0
0
0
0
0
0
0
0
0
0
0
0
0
0
0
0
0
0
0
0
0
0
0
0
0
0
0
0
0
0
0
0
0
0
0
0
0
0
0
0
0
0
0
0
0
0
0
0
0
0
0
0
0
0
0
0
0
0
0
0
0
0
0
0
0
0
0
0
0
0
0
0
0
0
0
0
0
0
0
0
0
0
0
0
0
0
0
0
0
0
0
0
0
0
0
0
0
0
0
0
0
0
0
0
0
0
0
0
0
0
0
0
0
0
0
0
0
0
0
0
0
0
0
0
0
0
0
0
0
0
0
0
0
0
0
0
0
0
0
0
0
0
0
0
0
0
0
0
0
0
0
0
0
0
0
0
0
0
0
0
0
0
0
0
0
0
0
0
0
0
0
0
0
0
0
0
0
0
0
0
0
0
0
0
0
0
0
0
0
0
0
0
0
0
0
0
0
0
0
0
0
0
0
0
0
0
0
0
0
0
0
0
0
0
0
0
0
0
0
0
0
0
0
0
0
0
0
0
0
0
0
0
0
0
0
0
0
0
0
0
0
0
0
0
0
0
0
0
0
0
0
0
0
0
0
0
0
0
0
0
0
0
SCALARS rhs double 1
LOOKUP_TABLE default
-5.77711
-5.7582
-5.77224
-5.82412
-5.90075
-6.00404
-6.1333
-6.28142
-6.42771
-6.53427
-6.53996
-6.37806
-6.0297
-5.56172
-5.10672
-4.83653
-4.78762
-4.95556
4.08424
0
0
0
0
0
0
0
0
0
0
0
0
0
0
0
0
0
0
0
0
0
0
0
0
0
0
0
0
0
0
0
-0.546201
-0.536035
-0.553562
-0.605031
-0.678896
-0.776639
-0.897055
-1.03233
-1.16383
-1.2535
-1.23646
-1.04543
-0.666767
-0.19004
0.252972
0.567098
0.235583
5.37645
1.45575
0
0
0
0
0
0
0
0
0
0
0
0
0
0
0
0
0
0
0
0
0
0
0
0
0
0
0
0
0
0
0
-0.48779
-0.482449
-0.50212
-0.553988
-0.62899
-0.727981
-0.848726
-0.982506
-1.1076
-1.17495
-1.10405
-0.807129
-0.28388
0.308471
0.857031
1.32494
4.08424
0
0
0
0
0
0
0
0
0
0
0
0
0
0
0
0
0
0
0
0
0
0
0
0
0
0
0
0
0
0
0
0
0
-0.428024
-0.425332
-0.445746
-0.498282
-0.573804
-0.672726
-0.792906
-0.92341
-1.03703
-1.06729
-0.904634
-0.422666
0.316165
1.16322
5.37645
1.45575
0
0
0
0
0
0
0
0
0
0
0
0
0
0
0
0
0
0
0
0
0
0
0
0
0
0
0
0
0
0
0
0
0
0
-0.357659
-0.357026
-0.378503
-0.431566
-0.506581
-0.604859
-0.724691
-0.853077
-0.950418
-0.92151
-0.600708
0.194852
1.4306
5.37645
0
0
0
0
0
0
0
0
0
0
0
0
0
0
0
0
0
0
0
0
0
0
0
0
0
0
0
0
0
0
0
0
0
0
0
0
-0.280699
-0.281227
-0.303759
-0.355399
-0.429049
-0.528222
-0.649812
-0.775909
-0.850216
-0.737364
-0.17887
1.28433
5.37645
0
0
0
0
0
0
0
0
0
0
0
0
0
0
0
0
0
0
0
0
0
0
0
0
0
0
0
0
0
0
0
0
0
0
0
0
0
-0.201479
-0.201515
-0.224214
-0.273597
-0.346654
-0.446131
-0.56872
-0.694035
-0.747488
-0.53483
0.674015
9.07202
0
0
0
0
0
0
0
0
0
0
0
0
0
0
0
0
0
0
0
0
0
0
0
0
0
0
0
0
0
0
0
0
0
0
0
0
0
0
-0.123547
-0.122803
-0.144598
-0.191022
-0.261328
-0.358889
-0.482356
-0.609844
-0.642541
-0.34234
2.23395
1.45575
0
0
0
0
0
0
0
0
0
0
0
0
0
0
0
0
0
0
0
0
0
0
0
0
0
0
0
0
0
0
0
0
0
0
0
0
0
0
-0.050839
-0.0502425
-0.0700638
-0.110743
-0.174685
-0.267487
-0.388021
-0.51566
-0.508351
0.589855
12.7395
0
0
0
0
0
0
0
0
0
0
0
0
0
0
0
0
0
0
0
0
0
0
0
0
0
0
0
0
0
0
0
0
0
0
0
0
0
0
0
0.0117911
0.0120599
-0.00446782
-0.0357951
-0.0872691
-0.170211
-0.278804
-0.406619
-0.366642
1.64453
1.45575
0
0
0
0
0
0
0
0
0
0
0
0
0
0
0
0
0
0
0
0
0
0
0
0
0
0
0
0
0
0
0
0
0
0
0
0
0
0
0
0.0612136
0.0601018
0.0479636
0.030475
0.00384484
-0.0643897
-0.140838
-0.235612
-0.141413
27.8093
0
0
0
0
0
0
0
0
0
0
0
0
0
0
0
0
0
0
0
0
0
0
0
0
0
0
0
0
0
0
0
0
0
0
0
0
0
0
0
0
0.0952336
0.569232
0.568387
0.571446
0.592981
0.58218
0.577351
0.57494
0.690862
27.537
0
0
0
0
0
0
0
0
0
0
0
0
0
0
0
0
0
0
0
0
0
0
0
0
0
0
0
0
0
0
0
0
0
0
0
0
0
0
0
0
0.729123
1.84379
1.85239
1.97224
3.25372
3.3702
4.59923
4.69478
5.90605
26.1906
0
0
0
0
0
0
0
0
0
0
0
0
0
0
0
0
0
0
0
0
0
0
0
0
0
0
0
0
0
0
0
0
0
0
0
0
0
0
0
0
7.061
5.55892
5.71513
6.83869
5.56628
5.6724
5.42452
5.43401
4.26976
17.1298
0
0
0
0
0
0
0
0
0
0
0
0
0
0
0
0
0
0
0
0
0
0
0
0
0
0
0
0
0
0
0
0
0
0
0
0
0
0
0
0
6.55202
6.55536
6.55982
5.31204
5.40986
6.30896
5.08555
5.09432
5.2091
10.3371
0
0
0
0
0
0
0
0
0
0
0
0
0
0
0
0
0
0
0
0
0
0
0
0
0
0
0
0
0
0
0
0
0
0
0
0
0
0
0
0
5.52783
5.53996
5.54196
5.54121
5.54439
4.52522
5.16545
5.22779
16.4546
0
0
0
0
0
0
0
0
0
0
0
0
0
0
0
0
0
0
0
0
0
0
0
0
0
0
0
0
0
0
0
0
0
0
0
0
0
0
0
0
0
3.60674
3.66202
3.98033
3.98143
3.98244
3.98396
3.23505
3.31189
11.5415
0
0
0
0
0
0
0
0
0
0
0
0
0
0
0
0
0
0
0
0
0
0
0
0
0
0
0
0
0
0
0
0
0
0
0
0
0
0
0
0
0
6.01719
6.36025
5.75447
5.75462
5.75506
5.75536
5.75588
5.76119
8.30564
0
0
0
0
0
0
0
0
0
0
0
0
0
0
0
0
0
0
0
0
0
0
0
0
0
0
0
0
0
0
0
0
0
0
0
0
0
0
0
0
0
3.29611
2.74112
2.74112
2.74112
2.74112
2.74112
2.74112
2.74112
2.74112
0
0
0
0
0
0
0
0
0
0
0
0
0
0
0
0
0
0
0
0
0
0
0
0
0
0
0
0
0
0
0
0
0
0
0
0
0
0
0
0
0
0
0
0
0
0
0
0
0
0
0
0
0
0
0
0
0
0
0
0
0
0
0
0
0
0
0
0
0
0
0
0
0
0
0
0
0
0
0
0
0
0
0
0
0
0
0
0
0
0
0
