# vtk DataFile Version 4.0
Nusif Fluid VTK output
ASCII
DATASET STRUCTURED_POINTS
DIMENSIONS 50 20 1
ORIGIN 0 0 0 
SPACING 0.2 0.2 1
POINT_DATA 1000 

VECTORS velocity double
0.0414016 -0.0465971  0
0.125136 -0.0468146  0
0.21035 -0.047337  0
0.29698 -0.0481132  0
0.385613 -0.0491973  0
0.47686 -0.0506222  0
0.571454 -0.0524347  0
0.670183 -0.0546483  0
0.773771 -0.0571912  0
0.88278 -0.0599835  0
0.997507 -0.0628217  0
1.1179 -0.0655661  0
1.24314 -0.067618  0
1.37129 -0.0684211  0
1.49815 -0.0662741  0
1.61795 -0.0613311  0
1.72596 -0.0544529  0
1.8204 -0.047744  0
1.90281 -0.042409  0
1.97609 -0.0385976  0
2.04221 -0.035228  0
2.10174 -0.0320332  0
2.15545 -0.0293922  0
2.20521 -0.0280615  0
2.25396 -0.0284078  0
2.30429 -0.02963  0
2.35349 -0.027272  0
2.39125 -0.0181903  0
2.41385 -0.0121208  0
2.42974 -0.0114762  0
2.44846 -0.0149385  0
2.47077 -0.0150813  0
2.47932 -0.00117022  0
2.46062 0.0121614  0
2.45534 -0.0107331  0
1.23304 0.000803164  0
0 0  0
0 0  0
0 0  0
0 0  0
0 0  0
0 0  0
0 0  0
0 0  0
0 0  0
0 0  0
0 0  0
0 0  0
0 0  0
0 0  0
0.0413342 -0.138955  0
0.124812 -0.139677  0
0.209655 -0.141228  0
0.295828 -0.143575  0
0.383823 -0.146778  0
0.474219 -0.150974  0
0.567683 -0.15631  0
0.664924 -0.162787  0
0.766438 -0.170093  0
0.872485 -0.177976  0
0.98311 -0.185929  0
1.09822 -0.193629  0
1.21689 -0.199072  0
1.33862 -0.202405  0
1.46064 -0.196687  0
1.57675 -0.182302  0
1.68001 -0.160212  0
1.76886 -0.140716  0
1.84635 -0.124771  0
1.91575 -0.114315  0
1.97978 -0.105086  0
2.03884 -0.0961857  0
2.09284 -0.088356  0
2.14286 -0.0842942  0
2.19194 -0.0854178  0
2.24394 -0.0903544  0
2.29808 -0.0853019  0
2.33919 -0.0544377  0
2.36208 -0.0367787  0
2.37881 -0.0348407  0
2.39757 -0.0444531  0
2.42201 -0.0477373  0
2.44438 -0.0148344  0
2.44801 0.0293322  0
2.443 -0.0214662  0
1.2215 -0.00992992  0
0 0  0
0 0  0
0 0  0
0 0  0
0 0  0
0 0  0
0 0  0
0 0  0
0 0  0
0 0  0
0 0  0
0 0  0
0 0  0
0 0  0
0.0411939 -0.230192  0
0.124269 -0.231479  0
0.208468 -0.233925  0
0.293803 -0.237791  0
0.380658 -0.242846  0
0.46944 -0.249482  0
0.560808 -0.258006  0
0.655401 -0.268279  0
0.753044 -0.279103  0
0.853162 -0.290455  0
0.956056 -0.302291  0
1.06195 -0.313599  0
1.16705 -0.318197  0
1.27362 -0.32691  0
1.38537 -0.3213  0
1.49621 -0.299988  0
1.59119 -0.256124  0
1.67069 -0.228518  0
1.74483 -0.203979  0
1.81282 -0.187865  0
1.87657 -0.174724  0
1.9371 -0.161538  0
1.99368 -0.14898  0
2.04623 -0.141647  0
2.09622 -0.14255  0
2.14802 -0.152409  0
2.2041 -0.148881  0
2.24832 -0.0877544  0
2.27933 -0.0650617  0
2.3053 -0.0569574  0
2.32379 -0.0672926  0
2.33633 -0.0695809  0
2.3406 -0.0273285  0
2.4197 0.00350653  0
2.47091 -0.0107331  0
1.2215 -0.0107331  0
0 0  0
0 0  0
0 0  0
0 0  0
0 0  0
0 0  0
0 0  0
0 0  0
0 0  0
0 0  0
0 0  0
0 0  0
0 0  0
0 0  0
0.0411193 -0.320937  0
0.123938 -0.322748  0
0.207329 -0.325587  0
0.291445 -0.330908  0
0.376598 -0.33708  0
0.462816 -0.345573  0
0.551257 -0.357035  0
0.642913 -0.370799  0
0.734718 -0.381322  0
0.825156 -0.394084  0
0.917554 -0.409251  0
1.01376 -0.424037  0
1.10144 -0.415856  0
1.18349 -0.433188  0
1.27556 -0.434176  0
1.37403 -0.411777  0
1.46609 -0.342894  0
1.54977 -0.312604  0
1.62953 -0.281489  0
1.70883 -0.265335  0
1.77884 -0.238708  0
1.84268 -0.229636  0
1.9049 -0.207385  0
1.96041 -0.198992  0
2.01194 -0.194439  0
2.05513 -0.203207  0
2.07497 -0.181702  0
2.15817 -0.142358  0
2.26141 -0.0404038  0
2.30268 -0.0335928  0
2.32713 -0.037778  0
2.31221 -0.0369249  0
2.31733 -0.0136642  0
1.1703 -0.0136642  0
0 0  0
0 0  0
0 0  0
0 0  0
0 0  0
0 0  0
0 0  0
0 0  0
0 0  0
0 0  0
0 0  0
0 0  0
0 0  0
0 0  0
0 0  0
0 0  0
0.0411982 -0.411418  0
0.124054 -0.413713  0
0.206296 -0.415499  0
0.288047 -0.422132  0
0.370288 -0.42851  0
0.452409 -0.437749  0
0.537217 -0.453378  0
0.6273 -0.471455  0
0.710038 -0.470458  0
0.784833 -0.485444  0
0.86464 -0.505385  0
0.950713 -0.52547  0
1.02958 -0.492444  0
1.0947 -0.511428  0
1.15413 -0.515108  0
1.18266 -0.465519  0
1.32999 -0.425288  0
1.51711 -0.177058  0
1.60566 -0.159872  0
1.6828 -0.153187  0
1.75791 -0.133842  0
1.82621 -0.13225  0
1.88623 -0.117368  0
1.95195 -0.113578  0
2.00988 -0.108899  0
2.03709 -0.111522  0
2.0543 -0.0908511  0
1.03749 -0.0908511  0
0 0  0
0 0  0
0 0  0
0 0  0
0 0  0
0 0  0
0 0  0
0 0  0
0 0  0
0 0  0
0 0  0
0 0  0
0 0  0
0 0  0
0 0  0
0 0  0
0 0  0
0 0  0
0 0  0
0 0  0
0 0  0
0 0  0
0.0413186 -0.501829  0
0.123475 -0.503774  0
0.203495 -0.50287  0
0.281776 -0.509999  0
0.358855 -0.515173  0
0.435424 -0.525008  0
0.513872 -0.544615  0
0.59685 -0.568519  0
0.671506 -0.542211  0
0.73761 -0.562211  0
0.79588 -0.57434  0
0.819583 -0.573939  0
0.949523 -0.550301  0
1.10319 -0.271166  0
1.11573 -0.27182  0
1.1436 -0.23276  0
0.591332 -0.23276  0
0 0  0
0 0  0
0 0  0
0 0  0
0 0  0
0 0  0
0 0  0
0 0  0
0 0  0
0 0  0
0 0  0
0 0  0
0 0  0
0 0  0
0 0  0
0 0  0
0 0  0
0 0  0
0 0  0
0 0  0
0 0  0
0 0  0
0 0  0
0 0  0
0 0  0
0 0  0
0 0  0
0 0  0
0 0  0
0 0  0
0 0  0
0 0  0
0 0  0
0.0399116 -0.586939  0
0.11963 -0.588191  0
0.199442 -0.585855  0
0.272206 -0.585651  0
0.348312 -0.600303  0
0.415333 -0.591075  0
0.47088 -0.620159  0
0.502755 -0.615446  0
0.614414 -0.594597  0
0.749758 -0.298389  0
0.78446 -0.299022  0
0.807531 -0.28697  0
0.409792 -0.28697  0
0 0  0
0 0  0
0 0  0
0 0  0
0 0  0
0 0  0
0 0  0
0 0  0
0 0  0
0 0  0
0 0  0
0 0  0
0 0  0
0 0  0
0 0  0
0 0  0
0 0  0
0 0  0
0 0  0
0 0  0
0 0  0
0 0  0
0 0  0
0 0  0
0 0  0
0 0  0
0 0  0
0 0  0
0 0  0
0 0  0
0 0  0
0 0  0
0 0  0
0 0  0
0 0  0
0 0  0
0 0  0
0.040485 -0.313425  0
0.119135 -0.313999  0
0.194648 -0.31293  0
0.281101 -0.309205  0
0.346481 -0.321825  0
0.419524 -0.307374  0
0.471229 -0.326017  0
0.484461 -0.307723  0
0.251377 -0.307723  0
0 0  0
0 0  0
0 0  0
0 0  0
0 0  0
0 0  0
0 0  0
0 0  0
0 0  0
0 0  0
0 0  0
0 0  0
0 0  0
0 0  0
0 0  0
0 0  0
0 0  0
0 0  0
0 0  0
0 0  0
0 0  0
0 0  0
0 0  0
0 0  0
0 0  0
0 0  0
0 0  0
0 0  0
0 0  0
0 0  0
0 0  0
0 0  0
0 0  0
0 0  0
0 0  0
0 0  0
0 0  0
0 0  0
0 0  0
0 0  0
0 0  0
0 0  0
0 0  0
0 0  0
0 0  0
0 0  0
0 0  0
0 0  0
0 0  0
0 0  0
0 0  0
0 0  0
0 0  0
0 0  0
0 0  0
0 0  0
0 0  0
0 0  0
0 0  0
0 0  0
0 0  0
0 0  0
0 0  0
0 0  0
0 0  0
0 0  0
0 0  0
0 0  0
0 0  0
0 0  0
0 0  0
0 0  0
0 0  0
0 0  0
0 0  0
0 0  0
0 0  0
0 0  0
0 0  0
0 0  0
0 0  0
0 0  0
0 0  0
0 0  0
0 0  0
0 0  0
0 0  0
0 0  0
0 0  0
0 0  0
0 0  0
0 0  0
0 0  0
0 0  0
0 0  0
0 0  0
0 0  0
0 0  0
0 0  0
0 0  0
0 0  0
0 0  0
0 0  0
0 0  0
0 0  0
0 0  0
0 0  0
0 0  0
0 0  0
0 0  0
0 0  0
0 0  0
0 0  0
0 0  0
0 0  0
0 0  0
0 0  0
0 0  0
0 0  0
0 0  0
0 0  0
0 0  0
0 0  0
0 0  0
0 0  0
0 0  0
0 0  0
0 0  0
0 0  0
0 0  0
0 0  0
0 0  0
0 0  0
0 0  0
0 0  0
0 0  0
0 0  0
0 0  0
0 0  0
0 0  0
0 0  0
0 0  0
0 0  0
0 0  0
0 0  0
0 0  0
0 0  0
0 0  0
0 0  0
0 0  0
0 0  0
0 0  0
0 0  0
0 0  0
0 0  0
0 0  0
0 0  0
0 0  0
0 0  0
0 0  0
0 0  0
0 0  0
0 0  0
0 0  0
0 0  0
0 0  0
0 0  0
0 0  0
0 0  0
0 0  0
0 0  0
0 0  0
0 0  0
0 0  0
0 0  0
0 0  0
0 0  0
0 0  0
0 0  0
0 0  0
0 0  0
0 0  0
0 0  0
0 0  0
0 0  0
0 0  0
0 0  0
0 0  0
0 0  0
0 0  0
0 0  0
0 0  0
0 0  0
0 0  0
0 0  0
0 0  0
0 0  0
0 0  0
0 0  0
0 0  0
0 0  0
0 0  0
0 0  0
0 0  0
0 0  0
0 0  0
0 0  0
0 0  0
0 0  0
0 0  0
0 0  0
0 0  0
0 0  0
0 0  0
0 0  0
0 0  0
0 0  0
0 0  0
0 0  0
0 0  0
0 0  0
0 0  0
0 0  0
0 0  0
0 0  0
0 0  0
0 0  0
0 0  0
0 0  0
0 0  0
0 0  0
0 0  0
0 0  0
0 0  0
0 0  0
0 0  0
0 0  0
0 0  0
0 0  0
0 0  0
0 0  0
0 0  0
0 0  0
0 0  0
0 0  0
0 0  0
0 0  0
0 0  0
0 0  0
0 0  0
0 0  0
0 0  0
0 0  0
0 0  0
0 0  0
0 0  0
0 0  0
0 0  0
0 0  0
0 0  0
0 0  0
0 0  0
0 0  0
0 0  0
0 0  0
0 0  0
0 0  0
0 0  0
0 0  0
0 0  0
0 0  0
0 0  0
0 0  0
0 0  0
0 0  0
0 0  0
0 0  0
0 0  0
0 0  0
0 0  0
0 0  0
0 0  0
0 0  0
0 0  0
0 0  0
0 0  0
0 0  0
0 0  0
0 0  0
0 0  0
0 0  0
0 0  0
0 0  0
0 0  0
0 0  0
0 0  0
0 0  0
0 0  0
0 0  0
0 0  0
0 0  0
0 0  0
0 0  0
0 0  0
0 0  0
0 0  0
0 0  0
0 0  0
0 0  0
0 0  0
0 0  0
0 0  0
0 0  0
0 0  0
0 0  0
0 0  0
0 0  0
0 0  0
0 0  0
0 0  0
0 0  0
0 0  0
0 0  0
0 0  0
0 0  0
0 0  0
0 0  0
0 0  0
0 0  0
0 0  0
0 0  0
0 0  0
0 0  0
0 0  0
0 0  0
0 0  0
0 0  0
0 0  0
0 0  0
0 0  0
0 0  0
0 0  0
0 0  0
0 0  0
0 0  0
0 0  0
0 0  0
0 0  0
0 0  0
0 0  0
0 0  0
0 0  0
0 0  0
0 0  0
0 0  0
0 0  0
0 0  0
0 0  0
0 0  0
0 0  0
0 0  0
0 0  0
0 0  0
0 0  0
0 0  0
0 0  0
0 0  0
0 0  0
0 0  0
0 0  0
0 0  0
0 0  0
0 0  0
0 0  0
0 0  0
0 0  0
0 0  0
0 0  0
0 0  0
0 0  0
0 0  0
0 0  0
0 0  0
0 0  0
0 0  0
0 0  0
0 0  0
0 0  0
0 0  0
0 0  0
0 0  0
0 0  0
0 0  0
0 0  0
0 0  0
0 0  0
0 0  0
0 0  0
0 0  0
0 0  0
0 0  0
0 0  0
0 0  0
0 0  0
0 0  0
0 0  0
0 0  0
0 0  0
0 0  0
0 0  0
0 0  0
0 0  0
0 0  0
0 0  0
0 0  0
0 0  0
0 0  0
0 0  0
0 0  0
0 0  0
0 0  0
0 0  0
0 0  0
0 0  0
0 0  0
0 0  0
0 0  0
0 0  0
0 0  0
0 0  0
0 0  0
0 0  0
0 0  0
0 0  0
0 0  0
0 0  0
0 0  0
0 0  0
0 0  0
0 0  0
0 0  0
0 0  0
0 0  0
0 0  0
0 0  0
0 0  0
0 0  0
0 0  0
0 0  0
0 0  0
0 0  0
0 0  0
0 0  0
0 0  0
0 0  0
0 0  0
0 0  0
0 0  0
0 0  0
0 0  0
0 0  0
0 0  0
0 0  0
0 0  0
0 0  0
0 0  0
0 0  0
0 0  0
0 0  0
0 0  0
0 0  0
0 0  0
0 0  0
0 0  0
0 0  0
0 0  0
0 0  0
0 0  0
0 0  0
0 0  0
0 0  0
0 0  0
0 0  0
0 0  0
0 0  0
0 0  0
0 0  0
0 0  0
0 0  0
0 0  0
0 0  0
0 0  0
0 0  0
0 0  0
0 0  0
0 0  0
0 0  0
0 0  0
0 0  0
0 0  0
0 0  0
0 0  0
0 0  0
0 0  0
0 0  0
0 0  0
0 0  0
0 0  0
0 0  0
0 0  0
0 0  0
0 0  0
0 0  0
0 0  0
0 0  0
0 0  0
0 0  0
0 0  0
0 0  0
0 0  0
0 0  0
0 0  0
0 0  0
0 0  0
0 0  0
0 0  0
0 0  0
0 0  0
0 0  0
0 0  0
0 0  0
0 0  0
0 0  0
0 0  0
0 0  0
0 0  0
0 0  0
0 0  0
0 0  0
0 0  0
0 0  0
0 0  0
0 0  0
0 0  0
0 0  0
0 0  0
0 0  0
0 0  0
0 0  0
0 0  0
0 0  0
0 0  0
0 0  0
0 0  0
0 0  0
0 0  0
0 0  0
0 0  0
0 0  0
0 0  0
0 0  0
0 0  0
0 0  0
0 0  0
0 0  0
0 0  0
0 0  0
0 0  0
0 0  0
0 0  0
0 0  0
0 0  0
0 0  0
0 0  0
0 0  0
0 0  0
0 0  0
0 0  0
0 0  0
0 0  0
0 0  0
0 0  0
0 0  0
0 0  0
0 0  0
0 0  0
0 0  0
0 0  0
0 0  0
0 0  0
0 0  0
0 0  0
0 0  0
0 0  0
0 0  0
0 0  0
0 0  0
0 0  0
0 0  0
0 0  0
0 0  0
0 0  0
0 0  0
0 0  0
0 0  0
0 0  0
0 0  0
0 0  0
0 0  0
0 0  0
0 0  0
0 0  0
0 0  0
0 0  0
0 0  0
0 0  0
0 0  0
0 0  0
0 0  0
0 0  0
0 0  0
0 0  0
0 0  0
0 0  0
0 0  0
0 0  0
0 0  0
0 0  0
0 0  0
0 0  0
0 0  0
0 0  0
0 0  0
0 0  0
0 0  0
0 0  0
0 0  0
0 0  0
0 0  0
0 0  0
0 0  0

SCALARS pressure double 1
LOOKUP_TABLE default
1.37579
1.38393
1.38795
1.38741
1.38165
1.36991
1.35177
1.32696
1.29546
1.25725
1.21199
1.15893
1.09801
1.02998
0.954224
0.873342
0.795066
0.730984
0.683573
0.649946
0.625133
0.606178
0.589937
0.573284
0.552509
0.523012
0.482692
0.438492
0.408369
0.38597
0.362237
0.325031
0.259674
0.157562
0
0
0
0
0
0
0
0
0
0
0
0
0
0
0
0
1.17063
1.17734
1.18034
1.17852
1.17136
1.15783
1.13736
1.10939
1.07418
1.03272
0.984084
0.927184
0.862564
0.794209
0.718882
0.635725
0.552332
0.491919
0.451563
0.425428
0.406084
0.392323
0.379983
0.367691
0.350954
0.323584
0.278405
0.219451
0.196245
0.182307
0.170581
0.149284
0.0956065
0
0.012399
0
0
0
0
0
0
0
0
0
0
0
0
0
0
0
0.951268
0.956432
0.958153
0.955153
0.946451
0.930874
0.906985
0.873493
0.831576
0.785336
0.732375
0.668503
0.594597
0.528675
0.458234
0.370381
0.265468
0.216855
0.19207
0.182269
0.171484
0.16747
0.161605
0.157471
0.150047
0.132009
0.0821911
-0.031931
-0.0240043
-0.0243568
-0.011815
0
-0.0169495
0
0
0
0
0
0
0
0
0
0
0
0
0
0
0
0
0
0.716319
0.72022
0.720647
0.717034
0.70771
0.690567
0.66311
0.621334
0.567099
0.517346
0.462898
0.389813
0.289007
0.237145
0.188299
0.101038
-0.0828089
-0.0852386
-0.085783
-0.0626011
-0.073344
-0.05706
-0.0608331
-0.0521224
-0.0440951
-0.0307612
-0.053392
0
0
0
0
0
0
0
0
0
0
0
0
0
0
0
0
0
0
0
0
0
0
0
0.464701
0.467843
0.467553
0.464253
0.456597
0.439624
0.411798
0.357957
0.274366
0.230795
0.18777
0.114111
-0.0777017
-0.069927
-0.051145
-0.0732156
0
0
0
0
0
0
0
0
0
0
0
0
0
0
0
0
0
0
0
0
0
0
0
0
0
0
0
0
0
0
0
0
0
0
0.194894
0.198744
0.198054
0.195988
0.195484
0.18019
0.165907
0.101963
-0.0681566
-0.0648459
-0.0660755
-0.0517092
0
0
0
0
0
0
0
0
0
0
0
0
0
0
0
0
0
0
0
0
0
0
0
0
0
0
0
0
0
0
0
0
0
0
0
0
0
0
-0.0853825
-0.0751205
-0.0783006
-0.0819665
-0.0573553
-0.0881104
-0.0370664
-0.0538583
0
0
0
0
0
0
0
0
0
0
0
0
0
0
0
0
0
0
0
0
0
0
0
0
0
0
0
0
0
0
0
0
0
0
0
0
0
0
0
0
0
0
0
0
0
0
0
0
0
0
0
0
0
0
0
0
0
0
0
0
0
0
0
0
0
0
0
0
0
0
0
0
0
0
0
0
0
0
0
0
0
0
0
0
0
0
0
0
0
0
0
0
0
0
0
0
0
0
0
0
0
0
0
0
0
0
0
0
0
0
0
0
0
0
0
0
0
0
0
0
0
0
0
0
0
0
0
0
0
0
0
0
0
0
0
0
0
0
0
0
0
0
0
0
0
0
0
0
0
0
0
0
0
0
0
0
0
0
0
0
0
0
0
0
0
0
0
0
0
0
0
0
0
0
0
0
0
0
0
0
0
0
0
0
0
0
0
0
0
0
0
0
0
0
0
0
0
0
0
0
0
0
0
0
0
0
0
0
0
0
0
0
0
0
0
0
0
0
0
0
0
0
0
0
0
0
0
0
0
0
0
0
0
0
0
0
0
0
0
0
0
0
0
0
0
0
0
0
0
0
0
0
0
0
0
0
0
0
0
0
0
0
0
0
0
0
0
0
0
0
0
0
0
0
0
0
0
0
0
0
0
0
0
0
0
0
0
0
0
0
0
0
0
0
0
0
0
0
0
0
0
0
0
0
0
0
0
0
0
0
0
0
0
0
0
0
0
0
0
0
0
0
0
0
0
0
0
0
0
0
0
0
0
0
0
0
0
0
0
0
0
0
0
0
0
0
0
0
0
0
0
0
0
0
0
0
0
0
0
0
0
0
0
0
0
0
0
0
0
0
0
0
0
0
0
0
0
0
0
0
0
0
0
0
0
0
0
0
0
0
0
0
0
0
0
0
0
0
0
0
0
0
0
0
0
0
0
0
0
0
0
0
0
0
0
0
0
0
0
0
0
0
0
0
0
0
0
0
0
0
0
0
0
0
0
0
0
0
0
0
0
0
0
0
0
0
0
0
0
0
0
0
0
0
0
0
0
0
0
0
0
0
0
0
0
0
0
0
0
0
0
0
0
0
0
0
0
0
0
0
0
0
0
0
0
0
0
0
0
0
0
0
0
0
0
0
0
0
0
0
0
0
0
0
0
0
0
0
0
0
0
0
0
0
0
0
0
0
0
0
0
0
0
0
0
0
0
0
0
0
0
0
0
0
0
0
0
0
0
0
0
0
0
0
0
0
0
0
0
0
0
0
0
0
0
0
0
0
0
0
0
0
0
0
0
0
0
0
0
0
0
0
0
0
0
0
0
0
0
0
0
0
0
0
0
0
0
0
0
0
0
0
0
0
0
0
0
0
0
0
0
0
0
0
0
0
0
0
0
0
0
0
0
0
0
0
0
0
0
0
0
0
0
0
0
0
0
0
0
0
0
0
0
0
0
0
0
0
0
0
0
0
0
0
0
0
0
0
0
0
0
0
0
0
0
0
0
0
0
0
0
0
0
0
0
0
0
0
0
0
0
0
0
0
0
0
0
0
0
0
0
0
0
0
0
0
0
0
0
0
0
0
SCALARS rhs double 1
LOOKUP_TABLE default
-5.26161
-5.42526
-5.45522
-5.4804
-5.52235
-5.56414
-5.61438
-5.68135
-5.76159
-5.84292
-5.93272
-6.02386
-6.09024
-6.10622
-6.02609
-5.88597
-5.72063
-5.56593
-5.46005
-5.39276
-5.33091
-5.28367
-5.25563
-5.24529
-5.25703
-5.25724
-5.20296
-5.12421
-5.11081
-5.12499
-5.12808
-5.09747
-5.0206
-5.32527
2.01831
0
0
0
0
0
0
0
0
0
0
0
0
0
0
0
-0.330665
-0.463315
-0.486121
-0.50091
-0.526994
-0.545673
-0.586856
-0.635927
-0.688049
-0.744375
-0.799393
-0.860189
-0.902074
-0.914795
-0.824698
-0.695768
-0.525856
-0.396965
-0.329134
-0.292453
-0.256684
-0.227774
-0.218068
-0.222848
-0.248646
-0.249841
-0.143338
0.0857269
0.0294682
-0.0197192
-0.00793361
-0.147893
0.239588
2.8914
0.963024
0
0
0
0
0
0
0
0
0
0
0
0
0
0
0
-0.368297
-0.473968
-0.493889
-0.511002
-0.516539
-0.537174
-0.572453
-0.611993
-0.648473
-0.676324
-0.710613
-0.746303
-0.734829
-0.757678
-0.663818
-0.522738
-0.125051
-0.077739
-0.0812954
-0.0707726
-0.0789904
-0.0454703
-0.0513193
-0.0703009
-0.0955569
-0.0726354
-0.0928508
4.57469
5.15018
5.33568
4.29219
2.8914
0.963024
0
0
0
0
0
0
0
0
0
0
0
0
0
0
0
0
0
-0.393647
-0.481768
-0.484812
-0.502861
-0.496682
-0.516426
-0.536222
-0.582937
-0.585851
-0.574217
-0.599623
-0.61154
-0.297237
-0.308371
-0.194316
-0.0340519
2.33318
5.19447
26.0021
19.6183
15.3628
10.5809
7.52252
4.73462
5.15018
5.33568
2.8914
0
0
0
0
0
0
0
0
0
0
0
0
0
0
0
0
0
0
0
0
0
0
0
-0.416405
-0.489085
-0.47444
-0.484407
-0.47163
-0.47479
-0.504073
-0.549546
-0.231278
-0.205854
-0.22663
-0.199682
2.64581
2.93638
42.148
33.472
19.5017
9.00999
0
0
0
0
0
0
0
0
0
0
0
0
0
0
0
0
0
0
0
0
0
0
0
0
0
0
0
0
0
0
0
0
-0.17262
-0.212704
-0.19224
-0.188621
-0.150695
-0.184488
-0.158287
-0.139099
2.09069
3.50182
5.0023
4.81997
12.4974
35.3186
0
0
0
0
0
0
0
0
0
0
0
0
0
0
0
0
0
0
0
0
0
0
0
0
0
0
0
0
0
0
0
0
0
0
0
0
2.09347
2.16144
2.71531
2.79021
3.55254
4.35976
5.22262
5.10183
2.09579
1.47098
2.53607
14.3387
26.3021
0
0
0
0
0
0
0
0
0
0
0
0
0
0
0
0
0
0
0
0
0
0
0
0
0
0
0
0
0
0
0
0
0
0
0
0
0
2.59543
2.54951
1.62039
1.22694
0.49828
0.777197
0.916648
3.70181
7.89906
8.9678
11.6117
27.2717
0
0
0
0
0
0
0
0
0
0
0
0
0
0
0
0
0
0
0
0
0
0
0
0
0
0
0
0
0
0
0
0
0
0
0
0
0
0
2.45787
2.59584
4.01582
4.53242
6.43299
7.47839
9.23983
7.89527
5.98596
8.49533
41.2731
0
0
0
0
0
0
0
0
0
0
0
0
0
0
0
0
0
0
0
0
0
0
0
0
0
0
0
0
0
0
0
0
0
0
0
0
0
0
0
9.36633
9.33066
8.04142
9.25902
7.69325
7.78758
9.09454
10.208
11.1703
21.7759
3.2041
0
0
0
0
0
0
0
0
0
0
0
0
0
0
0
0
0
0
0
0
0
0
0
0
0
0
0
0
0
0
0
0
0
0
0
0
0
0
0
7.92952
10.0992
10.1145
8.86149
11.2589
12.4355
10.8064
8.57914
8.60392
43.2779
0
0
0
0
0
0
0
0
0
0
0
0
0
0
0
0
0
0
0
0
0
0
0
0
0
0
0
0
0
0
0
0
0
0
0
0
0
0
0
0
13.2058
10.8439
11.0393
13.0106
10.7272
10.2862
9.48307
9.57063
8.67562
33.2233
0
0
0
0
0
0
0
0
0
0
0
0
0
0
0
0
0
0
0
0
0
0
0
0
0
0
0
0
0
0
0
0
0
0
0
0
0
0
0
0
8.71388
9.82855
9.83715
7.65861
8.9401
7.02241
6.34758
6.44313
5.90605
26.1906
0
0
0
0
0
0
0
0
0
0
0
0
0
0
0
0
0
0
0
0
0
0
0
0
0
0
0
0
0
0
0
0
0
0
0
0
0
0
0
0
7.061
5.55892
5.71513
6.83869
5.56628
5.6724
5.42452
5.43401
4.26976
17.1298
0
0
0
0
0
0
0
0
0
0
0
0
0
0
0
0
0
0
0
0
0
0
0
0
0
0
0
0
0
0
0
0
0
0
0
0
0
0
0
0
6.55202
6.55536
6.55982
5.31204
5.40986
6.30896
5.08555
5.09432
5.2091
10.3371
0
0
0
0
0
0
0
0
0
0
0
0
0
0
0
0
0
0
0
0
0
0
0
0
0
0
0
0
0
0
0
0
0
0
0
0
0
0
0
0
5.52783
5.53996
5.54196
5.54121
5.54439
4.52522
5.16545
5.22779
16.4546
0
0
0
0
0
0
0
0
0
0
0
0
0
0
0
0
0
0
0
0
0
0
0
0
0
0
0
0
0
0
0
0
0
0
0
0
0
0
0
0
0
3.60674
3.66202
3.98033
3.98143
3.98244
3.98396
3.23505
3.31189
11.5415
0
0
0
0
0
0
0
0
0
0
0
0
0
0
0
0
0
0
0
0
0
0
0
0
0
0
0
0
0
0
0
0
0
0
0
0
0
0
0
0
0
6.01719
6.36025
5.75447
5.75462
5.75506
5.75536
5.75588
5.76119
8.30564
0
0
0
0
0
0
0
0
0
0
0
0
0
0
0
0
0
0
0
0
0
0
0
0
0
0
0
0
0
0
0
0
0
0
0
0
0
0
0
0
0
3.29611
2.74112
2.74112
2.74112
2.74112
2.74112
2.74112
2.74112
2.74112
0
0
0
0
0
0
0
0
0
0
0
0
0
0
0
0
0
0
0
0
0
0
0
0
0
0
0
0
0
0
0
0
0
0
0
0
0
0
0
0
0
0
0
0
0
0
0
0
0
0
0
0
0
0
0
0
0
0
0
0
0
0
0
0
0
0
0
0
0
0
0
0
0
0
0
0
0
0
0
0
0
0
0
0
0
0
0
0
0
0
0
