# vtk DataFile Version 4.0
Nusif Fluid VTK output
ASCII
DATASET STRUCTURED_POINTS
DIMENSIONS 50 20 1
ORIGIN 0 0 0 
SPACING 0.2 0.2 1
POINT_DATA 1000 

VECTORS velocity double
0.0539118 -0.0631459  0
0.163056 -0.0639274  0
0.275172 -0.0655379  0
0.391414 -0.0679602  0
0.513386 -0.0711709  0
0.642586 -0.0750925  0
0.780274 -0.0795575  0
0.927207 -0.0842381  0
1.08325 -0.0885756  0
1.24686 -0.0917084  0
1.41442 -0.0924515  0
1.57983 -0.0894766  0
1.73473 -0.0818776  0
1.86998 -0.0697659  0
1.97729 -0.0538996  0
2.05082 -0.0359563  0
2.08813 -0.0176624  0
2.09339 -0.00388518  0
2.07101 0.00999187  0
2.02604 0.0187045  0
1.9992 0  0
0.9996 0  0
0 0  0
0 0  0
0 0  0
0 0  0
0 0  0
0 0  0
0 0  0
0 0  0
0 0  0
0 0  0
0 0  0
0 0  0
0 0  0
0 0  0
0 0  0
0 0  0
0 0  0
0 0  0
0 0  0
0 0  0
0 0  0
0 0  0
0 0  0
0 0  0
0 0  0
0 0  0
0 0  0
0 0  0
0.0530926 -0.188076  0
0.160552 -0.190442  0
0.270916 -0.195282  0
0.385348 -0.202557  0
0.505458 -0.212203  0
0.632776 -0.224005  0
0.768597 -0.237461  0
0.913729 -0.251588  0
1.06807 -0.26469  0
1.23 -0.274096  0
1.39556 -0.276068  0
1.55788 -0.266373  0
1.7076 -0.242314  0
1.83502 -0.204645  0
1.93232 -0.156235  0
1.99596 -0.10337  0
2.02605 -0.0502146  0
2.02933 -0.0124251  0
2.0258 0.0119057  0
2.02575 0.0374091  0
2.01247 0.0187045  0
0.9996 0  0
0 0  0
0 0  0
0 0  0
0 0  0
0 0  0
0 0  0
0 0  0
0 0  0
0 0  0
0 0  0
0 0  0
0 0  0
0 0  0
0 0  0
0 0  0
0 0  0
0 0  0
0 0  0
0 0  0
0 0  0
0 0  0
0 0  0
0 0  0
0 0  0
0 0  0
0 0  0
0 0  0
0 0  0
0.0514517 -0.309949  0
0.155565 -0.313903  0
0.262478 -0.321933  0
0.373372 -0.334025  0
0.489863 -0.350092  0
0.613536 -0.369817  0
0.745778 -0.392385  0
0.887519 -0.416173  0
1.03876 -0.438287  0
1.19773 -0.453973  0
1.35976 -0.456322  0
1.5161 -0.437303  0
1.6551 -0.392603  0
1.76506 -0.324235  0
1.8417 -0.243075  0
1.88334 -0.154305  0
1.8988 -0.0773381  0
1.89815 -0.0123184  0
1.89339 0.0038276  0
1.95957 0.0206183  0
1.01287 0.0187045  0
0 0  0
0 0  0
0 0  0
0 0  0
0 0  0
0 0  0
0 0  0
0 0  0
0 0  0
0 0  0
0 0  0
0 0  0
0 0  0
0 0  0
0 0  0
0 0  0
0 0  0
0 0  0
0 0  0
0 0  0
0 0  0
0 0  0
0 0  0
0 0  0
0 0  0
0 0  0
0 0  0
0 0  0
0 0  0
0.0490169 -0.427635  0
0.148184 -0.433123  0
0.250007 -0.444237  0
0.355675 -0.461028  0
0.466811 -0.48343  0
0.585049 -0.511065  0
0.711921 -0.54289  0
0.848583 -0.576677  0
0.995215 -0.608228  0
1.14988 -0.630217  0
1.30667 -0.631411  0
1.45388 -0.598262  0
1.57483 -0.524062  0
1.64987 -0.410251  0
1.69104 -0.307345  0
1.70873 -0.173727  0
1.70868 -0.0895718  0
1.79534 -0.0485645  0
1.88769 0.0019138  0
0.946693 0.0019138  0
0 0  0
0 0  0
0 0  0
0 0  0
0 0  0
0 0  0
0 0  0
0 0  0
0 0  0
0 0  0
0 0  0
0 0  0
0 0  0
0 0  0
0 0  0
0 0  0
0 0  0
0 0  0
0 0  0
0 0  0
0 0  0
0 0  0
0 0  0
0 0  0
0 0  0
0 0  0
0 0  0
0 0  0
0 0  0
0 0  0
0.0458369 -0.539594  0
0.138548 -0.546523  0
0.233717 -0.560566  0
0.332494 -0.581845  0
0.436464 -0.610387  0
0.547322 -0.645841  0
0.666797 -0.687066  0
0.796361 -0.731302  0
0.936451 -0.772875  0
1.08486 -0.801166  0
1.23417 -0.799062  0
1.37006 -0.74617  0
1.4639 -0.623387  0
1.48711 -0.433509  0
1.47883 -0.333209  0
1.5517 -0.25344  0
1.66663 -0.0447859  0
0.854338 -0.0447859  0
0 0  0
0 0  0
0 0  0
0 0  0
0 0  0
0 0  0
0 0  0
0 0  0
0 0  0
0 0  0
0 0  0
0 0  0
0 0  0
0 0  0
0 0  0
0 0  0
0 0  0
0 0  0
0 0  0
0 0  0
0 0  0
0 0  0
0 0  0
0 0  0
0 0  0
0 0  0
0 0  0
0 0  0
0 0  0
0 0  0
0 0  0
0 0  0
0.0419855 -0.64441  0
0.126865 -0.652635  0
0.213905 -0.669346  0
0.304147 -0.694745  0
0.399093 -0.729033  0
0.500474 -0.772036  0
0.610218 -0.822666  0
0.730152 -0.877748  0
0.860936 -0.929826  0
0.999549 -0.963737  0
1.13649 -0.955214  0
1.25984 -0.881701  0
1.37422 -0.720396  0
1.40922 -0.431113  0
1.43282 -0.166605  0
0.739415 -0.166605  0
0 0  0
0 0  0
0 0  0
0 0  0
0 0  0
0 0  0
0 0  0
0 0  0
0 0  0
0 0  0
0 0  0
0 0  0
0 0  0
0 0  0
0 0  0
0 0  0
0 0  0
0 0  0
0 0  0
0 0  0
0 0  0
0 0  0
0 0  0
0 0  0
0 0  0
0 0  0
0 0  0
0 0  0
0 0  0
0 0  0
0 0  0
0 0  0
0 0  0
0 0  0
0.0375755 -0.740849  0
0.113456 -0.750156  0
0.191078 -0.769122  0
0.271306 -0.798056  0
0.355448 -0.837402  0
0.445161 -0.88733  0
0.542492 -0.946993  0
0.649643 -1.01303  0
0.76736 -1.07555  0
0.890239 -1.11199  0
0.998625 -1.08475  0
1.06818 -0.97752  0
1.09082 -0.777809  0
0.545409 -0.607403  0
0 0  0
0 0  0
0 0  0
0 0  0
0 0  0
0 0  0
0 0  0
0 0  0
0 0  0
0 0  0
0 0  0
0 0  0
0 0  0
0 0  0
0 0  0
0 0  0
0 0  0
0 0  0
0 0  0
0 0  0
0 0  0
0 0  0
0 0  0
0 0  0
0 0  0
0 0  0
0 0  0
0 0  0
0 0  0
0 0  0
0 0  0
0 0  0
0 0  0
0 0  0
0 0  0
0 0  0
0.0327973 -0.827982  0
0.0988931 -0.838063  0
0.166203 -0.858741  0
0.235338 -0.890374  0
0.307192 -0.933637  0
0.383124 -0.989279  0
0.465125 -1.0569  0
0.555893 -1.13355  0
0.65685 -1.20618  0
0.760799 -1.24064  0
0.83376 -1.16989  0
0.855761 -1.00827  0
0.973289 -0.893039  0
0.545409 -0.388904  0
0 0  0
0 0  0
0 0  0
0 0  0
0 0  0
0 0  0
0 0  0
0 0  0
0 0  0
0 0  0
0 0  0
0 0  0
0 0  0
0 0  0
0 0  0
0 0  0
0 0  0
0 0  0
0 0  0
0 0  0
0 0  0
0 0  0
0 0  0
0 0  0
0 0  0
0 0  0
0 0  0
0 0  0
0 0  0
0 0  0
0 0  0
0 0  0
0 0  0
0 0  0
0 0  0
0 0  0
0.0280176 -0.905443  0
0.0841874 -0.915796  0
0.140938 -0.937624  0
0.198714 -0.970943  0
0.257627 -1.01636  0
0.318256 -1.07562  0
0.382177 -1.14897  0
0.452595 -1.23515  0
0.532239 -1.31766  0
0.614669 -1.348  0
0.654846 -1.2  0
0.755303 -1.10413  0
0.42788 -0.504134  0
0 0  0
0 0  0
0 0  0
0 0  0
0 0  0
0 0  0
0 0  0
0 0  0
0 0  0
0 0  0
0 0  0
0 0  0
0 0  0
0 0  0
0 0  0
0 0  0
0 0  0
0 0  0
0 0  0
0 0  0
0 0  0
0 0  0
0 0  0
0 0  0
0 0  0
0 0  0
0 0  0
0 0  0
0 0  0
0 0  0
0 0  0
0 0  0
0 0  0
0 0  0
0 0  0
0 0  0
0 0  0
0.0238165 -0.973814  0
0.0709255 -0.983504  0
0.117879 -1.00614  0
0.165407 -1.04024  0
0.212758 -1.08583  0
0.258675 -1.14519  0
0.302966 -1.22009  0
0.349362 -1.31331  0
0.401762 -1.404  0
0.467245 -1.4339  0
0.579856 -1.24705  0
0.327423 -0.599999  0
0 0  0
0 0  0
0 0  0
0 0  0
0 0  0
0 0  0
0 0  0
0 0  0
0 0  0
0 0  0
0 0  0
0 0  0
0 0  0
0 0  0
0 0  0
0 0  0
0 0  0
0 0  0
0 0  0
0 0  0
0 0  0
0 0  0
0 0  0
0 0  0
0 0  0
0 0  0
0 0  0
0 0  0
0 0  0
0 0  0
0 0  0
0 0  0
0 0  0
0 0  0
0 0  0
0 0  0
0 0  0
0 0  0
0.0206285 -1.03469  0
0.0611505 -1.04294  0
0.100798 -1.0658  0
0.141162 -1.10095  0
0.182492 -1.14626  0
0.217143 -1.19778  0
0.245146 -1.27225  0
0.272901 -1.36776  0
0.295766 -1.45728  0
0.316195 -1.48277  0
0.16372 -1.36555  0
0 0  0
0 0  0
0 0  0
0 0  0
0 0  0
0 0  0
0 0  0
0 0  0
0 0  0
0 0  0
0 0  0
0 0  0
0 0  0
0 0  0
0 0  0
0 0  0
0 0  0
0 0  0
0 0  0
0 0  0
0 0  0
0 0  0
0 0  0
0 0  0
0 0  0
0 0  0
0 0  0
0 0  0
0 0  0
0 0  0
0 0  0
0 0  0
0 0  0
0 0  0
0 0  0
0 0  0
0 0  0
0 0  0
0 0  0
0.0191959 -1.09086  0
0.0567703 -1.09744  0
0.0943598 -1.12099  0
0.132667 -1.15689  0
0.170615 -1.20206  0
0.206162 -1.23652  0
0.240602 -1.31219  0
0.261565 -1.39278  0
0.26761 -1.47741  0
0.270436 -1.49401  0
0.135218 -1.46551  0
0 0  0
0 0  0
0 0  0
0 0  0
0 0  0
0 0  0
0 0  0
0 0  0
0 0  0
0 0  0
0 0  0
0 0  0
0 0  0
0 0  0
0 0  0
0 0  0
0 0  0
0 0  0
0 0  0
0 0  0
0 0  0
0 0  0
0 0  0
0 0  0
0 0  0
0 0  0
0 0  0
0 0  0
0 0  0
0 0  0
0 0  0
0 0  0
0 0  0
0 0  0
0 0  0
0 0  0
0 0  0
0 0  0
0 0  0
0.0183876 -1.13659  0
0.0616812 -1.14883  0
0.101975 -1.1637  0
0.132331 -1.19907  0
0.147298 -1.22902  0
0.223437 -1.24112  0
0.311997 -0.664965  0
0.33672 -0.698001  0
0.316615 -0.74012  0
0.277322 -0.747005  0
0.135218 -0.747005  0
0 0  0
0 0  0
0 0  0
0 0  0
0 0  0
0 0  0
0 0  0
0 0  0
0 0  0
0 0  0
0 0  0
0 0  0
0 0  0
0 0  0
0 0  0
0 0  0
0 0  0
0 0  0
0 0  0
0 0  0
0 0  0
0 0  0
0 0  0
0 0  0
0 0  0
0 0  0
0 0  0
0 0  0
0 0  0
0 0  0
0 0  0
0 0  0
0 0  0
0 0  0
0 0  0
0 0  0
0 0  0
0 0  0
0 0  0
0.0277678 -0.577488  0
0.0737388 -0.586869  0
0.122124 -0.589546  0
0.157295 -0.607017  0
0.154791 -0.61451  0
0.0736491 -0.61451  0
0 0  0
0 0  0
0 0  0
0 0  0
0 0  0
0 0  0
0 0  0
0 0  0
0 0  0
0 0  0
0 0  0
0 0  0
0 0  0
0 0  0
0 0  0
0 0  0
0 0  0
0 0  0
0 0  0
0 0  0
0 0  0
0 0  0
0 0  0
0 0  0
0 0  0
0 0  0
0 0  0
0 0  0
0 0  0
0 0  0
0 0  0
0 0  0
0 0  0
0 0  0
0 0  0
0 0  0
0 0  0
0 0  0
0 0  0
0 0  0
0 0  0
0 0  0
0 0  0
0 0  0
0 0  0
0 0  0
0 0  0
0 0  0
0 0  0
0 0  0
0 0  0
0 0  0
0 0  0
0 0  0
0 0  0
0 0  0
0 0  0
0 0  0
0 0  0
0 0  0
0 0  0
0 0  0
0 0  0
0 0  0
0 0  0
0 0  0
0 0  0
0 0  0
0 0  0
0 0  0
0 0  0
0 0  0
0 0  0
0 0  0
0 0  0
0 0  0
0 0  0
0 0  0
0 0  0
0 0  0
0 0  0
0 0  0
0 0  0
0 0  0
0 0  0
0 0  0
0 0  0
0 0  0
0 0  0
0 0  0
0 0  0
0 0  0
0 0  0
0 0  0
0 0  0
0 0  0
0 0  0
0 0  0
0 0  0
0 0  0
0 0  0
0 0  0
0 0  0
0 0  0
0 0  0
0 0  0
0 0  0
0 0  0
0 0  0
0 0  0
0 0  0
0 0  0
0 0  0
0 0  0
0 0  0
0 0  0
0 0  0
0 0  0
0 0  0
0 0  0
0 0  0
0 0  0
0 0  0
0 0  0
0 0  0
0 0  0
0 0  0
0 0  0
0 0  0
0 0  0
0 0  0
0 0  0
0 0  0
0 0  0
0 0  0
0 0  0
0 0  0
0 0  0
0 0  0
0 0  0
0 0  0
0 0  0
0 0  0
0 0  0
0 0  0
0 0  0
0 0  0
0 0  0
0 0  0
0 0  0
0 0  0
0 0  0
0 0  0
0 0  0
0 0  0
0 0  0
0 0  0
0 0  0
0 0  0
0 0  0
0 0  0
0 0  0
0 0  0
0 0  0
0 0  0
0 0  0
0 0  0
0 0  0
0 0  0
0 0  0
0 0  0
0 0  0
0 0  0
0 0  0
0 0  0
0 0  0
0 0  0
0 0  0
0 0  0
0 0  0
0 0  0
0 0  0
0 0  0
0 0  0
0 0  0
0 0  0
0 0  0
0 0  0
0 0  0
0 0  0
0 0  0
0 0  0
0 0  0
0 0  0
0 0  0
0 0  0
0 0  0
0 0  0
0 0  0
0 0  0
0 0  0
0 0  0
0 0  0
0 0  0
0 0  0
0 0  0
0 0  0
0 0  0
0 0  0
0 0  0
0 0  0
0 0  0
0 0  0
0 0  0
0 0  0
0 0  0
0 0  0
0 0  0
0 0  0
0 0  0
0 0  0
0 0  0
0 0  0
0 0  0
0 0  0
0 0  0
0 0  0
0 0  0
0 0  0
0 0  0
0 0  0
0 0  0
0 0  0
0 0  0
0 0  0
0 0  0
0 0  0
0 0  0
0 0  0
0 0  0
0 0  0
0 0  0
0 0  0
0 0  0
0 0  0
0 0  0
0 0  0
0 0  0
0 0  0
0 0  0
0 0  0
0 0  0
0 0  0
0 0  0
0 0  0
0 0  0
0 0  0
0 0  0
0 0  0
0 0  0
0 0  0
0 0  0
0 0  0
0 0  0
0 0  0
0 0  0
0 0  0
0 0  0
0 0  0
0 0  0
0 0  0
0 0  0
0 0  0
0 0  0
0 0  0
0 0  0
0 0  0
0 0  0
0 0  0
0 0  0
0 0  0
0 0  0
0 0  0
0 0  0
0 0  0
0 0  0
0 0  0
0 0  0
0 0  0
0 0  0
0 0  0
0 0  0
0 0  0
0 0  0
0 0  0
0 0  0
0 0  0
0 0  0
0 0  0
0 0  0
0 0  0
0 0  0
0 0  0
0 0  0
0 0  0
0 0  0
0 0  0
0 0  0
0 0  0
0 0  0
0 0  0
0 0  0
0 0  0
0 0  0
0 0  0
0 0  0
0 0  0
0 0  0
0 0  0
0 0  0
0 0  0
0 0  0
0 0  0
0 0  0
0 0  0
0 0  0
0 0  0
0 0  0
0 0  0
0 0  0
0 0  0
0 0  0
0 0  0
0 0  0
0 0  0
0 0  0
0 0  0
0 0  0
0 0  0
0 0  0
0 0  0
0 0  0
0 0  0
0 0  0

SCALARS pressure double 1
LOOKUP_TABLE default
2.82321
2.81694
2.80001
2.7716
2.72947
2.67042
2.59053
2.48527
2.35003
2.18126
1.97818
1.74501
1.49269
1.23806
0.99932
0.79039
0.618862
0.485816
0.395083
0.36367
0.541601
0
0
0
0
0
0
0
0
0
0
0
0
0
0
0
0
0
0
0
0
0
0
0
0
0
0
0
0
0
2.60633
2.59981
2.58262
2.55379
2.51105
2.45119
2.37004
2.26285
2.12475
1.95187
1.74334
1.50391
1.24621
0.989761
0.754642
0.551656
0.385981
0.249846
0.131838
-0.0532529
0
0
0
0
0
0
0
0
0
0
0
0
0
0
0
0
0
0
0
0
0
0
0
0
0
0
0
0
0
0
2.37695
2.37019
2.3527
2.32353
2.28019
2.2194
2.13669
2.02678
1.88413
1.70408
1.48523
1.23296
0.9632
0.702078
0.477188
0.28672
0.146319
0
-0.0353813
0
0
0
0
0
0
0
0
0
0
0
0
0
0
0
0
0
0
0
0
0
0
0
0
0
0
0
0
0
0
0
2.13723
2.13021
2.11244
2.08296
2.03917
1.97753
1.89328
1.78042
1.63237
1.44323
1.21049
0.939637
0.649862
0.380094
0.186116
0
-0.033001
0
0
0
0
0
0
0
0
0
0
0
0
0
0
0
0
0
0
0
0
0
0
0
0
0
0
0
0
0
0
0
0
0
1.8894
1.88212
1.86418
1.83445
1.79045
1.72839
1.64314
1.52795
1.37502
1.17706
0.930301
0.638568
0.317552
0.0309193
-0.0570219
0
0
0
0
0
0
0
0
0
0
0
0
0
0
0
0
0
0
0
0
0
0
0
0
0
0
0
0
0
0
0
0
0
0
0
1.63619
1.62861
1.61055
1.58079
1.53691
1.47513
1.39
1.27408
1.1184
0.914937
0.661052
0.358947
0
0
0
0
0
0
0
0
0
0
0
0
0
0
0
0
0
0
0
0
0
0
0
0
0
0
0
0
0
0
0
0
0
0
0
0
0
0
1.38051
1.37269
1.35455
1.32492
1.28154
1.22089
1.13757
1.02345
0.868285
0.664587
0.420321
0.172761
0.0799411
0
0
0
0
0
0
0
0
0
0
0
0
0
0
0
0
0
0
0
0
0
0
0
0
0
0
0
0
0
0
0
0
0
0
0
0
0
1.12539
1.11739
1.09925
1.06985
1.02714
0.968423
0.889177
0.780544
0.629601
0.425698
0.18116
-0.041359
0
0
0
0
0
0
0
0
0
0
0
0
0
0
0
0
0
0
0
0
0
0
0
0
0
0
0
0
0
0
0
0
0
0
0
0
0
0
0.873691
0.865656
0.847696
0.81852
0.776179
0.719444
0.647327
0.550561
0.41239
0.213102
-0.017087
0
0
0
0
0
0
0
0
0
0
0
0
0
0
0
0
0
0
0
0
0
0
0
0
0
0
0
0
0
0
0
0
0
0
0
0
0
0
0
0.627841
0.620144
0.602816
0.574089
0.530802
0.473081
0.412072
0.337559
0.231369
0.0692714
0
0
0
0
0
0
0
0
0
0
0
0
0
0
0
0
0
0
0
0
0
0
0
0
0
0
0
0
0
0
0
0
0
0
0
0
0
0
0
0
0.389313
0.382933
0.367378
0.340961
0.294808
0.222099
0.178617
0.138984
0.0922648
0.0251393
0
0
0
0
0
0
0
0
0
0
0
0
0
0
0
0
0
0
0
0
0
0
0
0
0
0
0
0
0
0
0
0
0
0
0
0
0
0
0
0
0.157992
0.155201
0.142875
0.126893
0.08377
-0.0296585
-0.0300549
-0.0240672
0.00882969
-0.0443277
0
0
0
0
0
0
0
0
0
0
0
0
0
0
0
0
0
0
0
0
0
0
0
0
0
0
0
0
0
0
0
0
0
0
0
0
0
0
0
0
-0.0401422
-0.0327403
-0.0473906
-0.0281607
-0.0194334
0
0
0
0
0
0
0
0
0
0
0
0
0
0
0
0
0
0
0
0
0
0
0
0
0
0
0
0
0
0
0
0
0
0
0
0
0
0
0
0
0
0
0
0
0
0
0
0
0
0
0
0
0
0
0
0
0
0
0
0
0
0
0
0
0
0
0
0
0
0
0
0
0
0
0
0
0
0
0
0
0
0
0
0
0
0
0
0
0
0
0
0
0
0
0
0
0
0
0
0
0
0
0
0
0
0
0
0
0
0
0
0
0
0
0
0
0
0
0
0
0
0
0
0
0
0
0
0
0
0
0
0
0
0
0
0
0
0
0
0
0
0
0
0
0
0
0
0
0
0
0
0
0
0
0
0
0
0
0
0
0
0
0
0
0
0
0
0
0
0
0
0
0
0
0
0
0
0
0
0
0
0
0
0
0
0
0
0
0
0
0
0
0
0
0
0
0
0
0
0
0
0
0
0
0
0
0
0
0
0
0
0
0
0
0
0
0
0
0
0
0
0
0
0
0
0
0
0
0
0
0
0
0
0
0
0
0
0
0
0
0
0
0
0
0
0
0
0
0
0
0
0
0
0
0
0
0
0
0
0
0
0
0
0
0
0
0
0
0
0
0
0
0
0
0
0
0
0
0
0
0
0
0
0
0
0
0
0
0
0
0
0
0
0
0
0
0
0
0
0
0
0
0
0
0
0
0
0
0
0
0
0
0
0
0
0
0
0
0
0
0
0
0
0
0
0
0
0
0
0
0
0
0
0
0
0
0
0
0
0
0
0
0
0
0
0
0
0
0
0
0
0
0
0
0
0
0
0
0
0
0
0
0
0
0
0
0
0
0
0
0
0
0
0
0
0
0
0
0
0
0
0
0
0
0
0
0
0
0
0
0
0
0
0
0
SCALARS rhs double 1
LOOKUP_TABLE default
-5.85309
-5.83411
-5.85118
-5.90463
-5.98879
-6.09373
-6.22655
-6.37768
-6.52647
-6.63736
-6.65812
-6.5326
-6.23852
-5.82266
-5.37991
-5.03799
-4.86247
-4.84244
-5.09836
-5.18925
2.03417
0
0
0
0
0
0
0
0
0
0
0
0
0
0
0
0
0
0
0
0
0
0
0
0
0
0
0
0
0
-0.61398
-0.600636
-0.622396
-0.674624
-0.751469
-0.856575
-0.980076
-1.11934
-1.25605
-1.3532
-1.35448
-1.20106
-0.879937
-0.448673
-0.0134608
0.280193
0.570923
0.107908
0.724535
3.93803
0
0
0
0
0
0
0
0
0
0
0
0
0
0
0
0
0
0
0
0
0
0
0
0
0
0
0
0
0
0
-0.552868
-0.545533
-0.564437
-0.625908
-0.7006
-0.807677
-0.937195
-1.07985
-1.21488
-1.29596
-1.24887
-0.994067
-0.538152
0.0523635
0.52385
0.710501
1.36296
5.68638
2.03417
0
0
0
0
0
0
0
0
0
0
0
0
0
0
0
0
0
0
0
0
0
0
0
0
0
0
0
0
0
0
0
-0.488725
-0.487058
-0.505471
-0.565314
-0.646682
-0.753015
-0.886869
-1.03412
-1.16709
-1.2209
-1.08633
-0.661718
0.031868
1.22119
1.39931
7.14212
2.03417
0
0
0
0
0
0
0
0
0
0
0
0
0
0
0
0
0
0
0
0
0
0
0
0
0
0
0
0
0
0
0
0
0
-0.413595
-0.412555
-0.438578
-0.492669
-0.577531
-0.686961
-0.825243
-0.978272
-1.10618
-1.11608
-0.845903
-0.189305
1.23697
11.0628
3.93803
0
0
0
0
0
0
0
0
0
0
0
0
0
0
0
0
0
0
0
0
0
0
0
0
0
0
0
0
0
0
0
0
0
0
0
-0.33421
-0.329337
-0.358685
-0.412761
-0.496913
-0.609413
-0.752285
-0.911553
-1.02889
-0.961777
-0.486762
0.922272
11.0628
0
0
0
0
0
0
0
0
0
0
0
0
0
0
0
0
0
0
0
0
0
0
0
0
0
0
0
0
0
0
0
0
0
0
0
0
0
-0.250103
-0.247186
-0.273036
-0.326386
-0.407998
-0.521914
-0.667402
-0.830247
-0.923465
-0.722334
-0.0369253
3.1764
2.03417
0
0
0
0
0
0
0
0
0
0
0
0
0
0
0
0
0
0
0
0
0
0
0
0
0
0
0
0
0
0
0
0
0
0
0
0
0
-0.167626
-0.166442
-0.189545
-0.239171
-0.313829
-0.424112
-0.568285
-0.730756
-0.782077
-0.352267
1.58047
7.14212
0
0
0
0
0
0
0
0
0
0
0
0
0
0
0
0
0
0
0
0
0
0
0
0
0
0
0
0
0
0
0
0
0
0
0
0
0
0
-0.0944259
-0.0925768
-0.112176
-0.154808
-0.217446
-0.3155
-0.447305
-0.605876
-0.61734
0.953976
18.4259
0
0
0
0
0
0
0
0
0
0
0
0
0
0
0
0
0
0
0
0
0
0
0
0
0
0
0
0
0
0
0
0
0
0
0
0
0
0
0
-0.035638
-0.0309288
-0.0459055
-0.07774
-0.122079
-0.192727
-0.28758
-0.426231
-0.343913
5.08592
3.2041
0
0
0
0
0
0
0
0
0
0
0
0
0
0
0
0
0
0
0
0
0
0
0
0
0
0
0
0
0
0
0
0
0
0
0
0
0
0
0
0.00649497
0.0124497
0.00631537
-0.0116985
-0.0341597
0.718069
0.721174
0.715395
0.885109
33.4957
0
0
0
0
0
0
0
0
0
0
0
0
0
0
0
0
0
0
0
0
0
0
0
0
0
0
0
0
0
0
0
0
0
0
0
0
0
0
0
0
0.757342
0.762806
0.770533
0.802726
0.944951
2.94671
4.74513
4.83269
6.37724
33.2233
0
0
0
0
0
0
0
0
0
0
0
0
0
0
0
0
0
0
0
0
0
0
0
0
0
0
0
0
0
0
0
0
0
0
0
0
0
0
0
0
6.4155
7.53017
7.53876
7.65861
8.9401
7.02241
6.34758
6.44313
5.90605
26.1906
0
0
0
0
0
0
0
0
0
0
0
0
0
0
0
0
0
0
0
0
0
0
0
0
0
0
0
0
0
0
0
0
0
0
0
0
0
0
0
0
7.061
5.55892
5.71513
6.83869
5.56628
5.6724
5.42452
5.43401
4.26976
17.1298
0
0
0
0
0
0
0
0
0
0
0
0
0
0
0
0
0
0
0
0
0
0
0
0
0
0
0
0
0
0
0
0
0
0
0
0
0
0
0
0
6.55202
6.55536
6.55982
5.31204
5.40986
6.30896
5.08555
5.09432
5.2091
10.3371
0
0
0
0
0
0
0
0
0
0
0
0
0
0
0
0
0
0
0
0
0
0
0
0
0
0
0
0
0
0
0
0
0
0
0
0
0
0
0
0
5.52783
5.53996
5.54196
5.54121
5.54439
4.52522
5.16545
5.22779
16.4546
0
0
0
0
0
0
0
0
0
0
0
0
0
0
0
0
0
0
0
0
0
0
0
0
0
0
0
0
0
0
0
0
0
0
0
0
0
0
0
0
0
3.60674
3.66202
3.98033
3.98143
3.98244
3.98396
3.23505
3.31189
11.5415
0
0
0
0
0
0
0
0
0
0
0
0
0
0
0
0
0
0
0
0
0
0
0
0
0
0
0
0
0
0
0
0
0
0
0
0
0
0
0
0
0
6.01719
6.36025
5.75447
5.75462
5.75506
5.75536
5.75588
5.76119
8.30564
0
0
0
0
0
0
0
0
0
0
0
0
0
0
0
0
0
0
0
0
0
0
0
0
0
0
0
0
0
0
0
0
0
0
0
0
0
0
0
0
0
3.29611
2.74112
2.74112
2.74112
2.74112
2.74112
2.74112
2.74112
2.74112
0
0
0
0
0
0
0
0
0
0
0
0
0
0
0
0
0
0
0
0
0
0
0
0
0
0
0
0
0
0
0
0
0
0
0
0
0
0
0
0
0
0
0
0
0
0
0
0
0
0
0
0
0
0
0
0
0
0
0
0
0
0
0
0
0
0
0
0
0
0
0
0
0
0
0
0
0
0
0
0
0
0
0
0
0
0
0
0
0
0
0
