# vtk DataFile Version 4.0
Nusif Fluid VTK output
ASCII
DATASET STRUCTURED_POINTS
DIMENSIONS 50 20 1
ORIGIN 0 0 0 
SPACING 0.2 0.2 1
POINT_DATA 1000 

VECTORS velocity double
0.039884 -0.039884  0
0.0522595 -0.0719131  0
0.0775181 -0.052767  0
0.171497 -0.0411208  0
0.24793 -0.0350972  0
0.315174 -0.0320893  0
0.377879 -0.0305647  0
0.438419 -0.0297739  0
0.497965 -0.0297742  0
0.557655 -0.0297716  0
0.618283 -0.0304385  0
0.680464 -0.0316092  0
0.745324 -0.03309  0
0.813224 -0.0344344  0
0.880473 -0.0325351  0
0.941562 -0.0282674  0
0.996293 -0.0261962  0
1.047 -0.0242225  0
1.09509 -0.023599  0
1.14206 -0.0230661  0
1.18827 -0.0228584  0
1.23418 -0.02274  0
1.27892 -0.0217202  0
1.32318 -0.0222363  0
1.36616 -0.020466  0
1.40935 -0.0224374  0
1.45139 -0.019303  0
1.49413 -0.023176  0
1.53557 -0.0179332  0
1.57839 -0.0246472  0
1.62049 -0.0171038  0
1.66535 -0.0275154  0
1.71065 -0.0174263  0
1.75901 -0.0306869  0
1.8078 -0.0177903  0
1.8569 -0.0310132  0
1.90464 -0.0164634  0
1.94791 -0.0264812  0
1.98877 -0.0141156  0
2.02265 -0.0193678  0
2.05674 -0.0146494  0
2.08676 -0.0150816  0
2.12249 -0.0202927  0
2.15785 -0.0149493  0
2.19862 -0.0255232  0
2.23942 -0.0149657  0
2.28124 -0.0266331  0
2.32477 -0.0166541  0
2.37017 -0.0284884  0
2.39879 -0.0180344  0
0.0366569 -0.116305  0
0.0873035 -0.157816  0
0.129799 -0.133811  0
0.1903 -0.114092  0
0.25391 -0.101743  0
0.31599 -0.0946036  0
0.376394 -0.0905881  0
0.435294 -0.0887354  0
0.493697 -0.0882545  0
0.552182 -0.0888617  0
0.611034 -0.0905012  0
0.671805 -0.09381  0
0.735863 -0.0992368  0
0.805469 -0.105258  0
0.873847 -0.0966906  0
0.930932 -0.0817025  0
0.98156 -0.0774753  0
1.03114 -0.0726637  0
1.07948 -0.0709406  0
1.12724 -0.0699018  0
1.17459 -0.0689119  0
1.22158 -0.0690472  0
1.26776 -0.0656826  0
1.31346 -0.0676898  0
1.35811 -0.0620044  0
1.40267 -0.0680722  0
1.44611 -0.0585557  0
1.48995 -0.0698746  0
1.53263 -0.0548184  0
1.57604 -0.0732988  0
1.61892 -0.0529447  0
1.66316 -0.0800298  0
1.70807 -0.0546567  0
1.75455 -0.087567  0
1.80174 -0.0564064  0
1.84929 -0.0883611  0
1.89539 -0.0524011  0
1.93921 -0.07704  0
1.97989 -0.044403  0
2.01561 -0.058216  0
2.05075 -0.0444105  0
2.08173 -0.0458311  0
2.11729 -0.0601961  0
2.15336 -0.0458894  0
2.19296 -0.0744175  0
2.23345 -0.0467685  0
2.27426 -0.0768739  0
2.31461 -0.049718  0
2.35573 -0.081378  0
2.38029 -0.0516688  0
0.0318226 -0.184465  0
0.0888475 -0.196887  0
0.141118 -0.189039  0
0.197218 -0.174814  0
0.255732 -0.162643  0
0.314508 -0.154116  0
0.372687 -0.148814  0
0.430129 -0.146222  0
0.486914 -0.145259  0
0.543544 -0.146103  0
0.600236 -0.148368  0
0.657344 -0.153091  0
0.716681 -0.16258  0
0.781951 -0.176284  0
0.847978 -0.159433  0
0.897897 -0.125514  0
0.951334 -0.137351  0
1.00687 -0.117625  0
1.05588 -0.122947  0
1.11083 -0.120365  0
1.15497 -0.109549  0
1.21198 -0.132188  0
1.25026 -0.0866298  0
1.31115 -0.153089  0
1.3427 -0.0524441  0
1.4097 -0.188906  0
1.43285 -0.00401284  0
1.50791 -0.242956  0
1.5219 0.061797  0
1.60474 -0.315711  0
1.61127 0.140199  0
1.69459 -0.400226  0
1.70104 0.214281  0
1.76859 -0.470048  0
1.79116 0.256478  0
1.82543 -0.482676  0
1.88426 0.237281  0
1.87915 -0.405164  0
1.9839 0.138723  0
1.94778 -0.240876  0
2.08467 -0.0332365  0
2.03482 -0.0379318  0
2.16695 -0.235502  0
2.12866 0.132108  0
2.21797 -0.381095  0
2.22211 0.215567  0
2.24146 -0.399009  0
2.3214 0.152465  0
2.25938 -0.262358  0
2.41596 -0.0672689  0
0.0288486 -0.244937  0
0.0855589 -0.249831  0
0.141081 -0.243649  0
0.196612 -0.231555  0
0.253429 -0.22094  0
0.310889 -0.211718  0
0.368238 -0.206417  0
0.425141 -0.202588  0
0.481396 -0.201746  0
0.536899 -0.20134  0
0.591613 -0.20401  0
0.642962 -0.20573  0
0.683959 -0.209914  0
0.714538 -0.224454  0
0.72807 -0.190554  0
0.836299 -0.167356  0
0.948439 -0.0860719  0
0.996403 -0.0691838  0
1.06022 -0.0756058  0
1.09872 -0.0735297  0
1.16732 -0.063495  0
1.19116 -0.0858803  0
1.27202 -0.0426674  0
1.27939 -0.107635  0
1.37833 -0.0109057  0
1.36356 -0.143271  0
1.48583 0.0352398  0
1.44447 -0.196257  0
1.5927 0.0986822  0
1.52739 -0.267059  0
1.69192 0.17604  0
1.61912 -0.347712  0
1.7665 0.251512  0
1.72501 -0.413168  0
1.80332 0.295094  0
1.84731 -0.425328  0
1.81354 0.273218  0
1.98336 -0.354605  0
1.83132 0.16901  0
2.12027 -0.202028  0
1.88983 -0.00347532  0
2.22694 -0.00718231  0
1.99672 -0.195599  0
2.26526 0.163048  0
2.13365 -0.332201  0
2.23868 0.24737  0
2.3033 -0.348768  0
2.1821 0.185529  0
2.47855 -0.209469  0
2.23294 -0.0336344  0
0.0308023 -0.136893  0
0.0843212 -0.138846  0
0.131947 -0.135655  0
0.1859 -0.129713  0
0.243832 -0.124943  0
0.303572 -0.120115  0
0.36345 -0.117626  0
0.422481 -0.115327  0
0.480396 -0.114967  0
0.537636 -0.114327  0
0.592126 -0.115704  0
0.640738 -0.11484  0
0.688112 -0.11348  0
0.696335 -0.118993  0
0.704354 -0.095277  0
0.364035 -0.095277  0
0 0  0
0 0  0
0 0  0
0 0  0
0 0  0
0 0  0
0 0  0
0 0  0
0 0  0
0 0  0
0 0  0
0 0  0
0 0  0
0 0  0
0 0  0
0 0  0
0 0  0
0 0  0
0 0  0
0 0  0
0 0  0
0 0  0
0 0  0
0 0  0
0 0  0
0 0  0
0 0  0
0 0  0
0 0  0
0 0  0
0 0  0
0 0  0
0 0  0
0 0  0
0 0  0
0 0  0
0 0  0
0 0  0
0 0  0
0 0  0
0 0  0
0 0  0
0 0  0
0 0  0
0 0  0
0 0  0
0 0  0
0 0  0
0 0  0
0 0  0
0 0  0
0 0  0
0 0  0
0 0  0
0 0  0
0 0  0
0 0  0
0 0  0
0 0  0
0 0  0
0 0  0
0 0  0
0 0  0
0 0  0
0 0  0
0 0  0
0 0  0
0 0  0
0 0  0
0 0  0
0 0  0
0 0  0
0 0  0
0 0  0
0 0  0
0 0  0
0 0  0
0 0  0
0 0  0
0 0  0
0 0  0
0 0  0
0 0  0
0 0  0
0 0  0
0 0  0
0 0  0
0 0  0
0 0  0
0 0  0
0 0  0
0 0  0
0 0  0
0 0  0
0 0  0
0 0  0
0 0  0
0 0  0
0 0  0
0 0  0
0 0  0
0 0  0
0 0  0
0 0  0
0 0  0
0 0  0
0 0  0
0 0  0
0 0  0
0 0  0
0 0  0
0 0  0
0 0  0
0 0  0
0 0  0
0 0  0
0 0  0
0 0  0
0 0  0
0 0  0
0 0  0
0 0  0
0 0  0
0 0  0
0 0  0
0 0  0
0 0  0
0 0  0
0 0  0
0 0  0
0 0  0
0 0  0
0 0  0
0 0  0
0 0  0
0 0  0
0 0  0
0 0  0
0 0  0
0 0  0
0 0  0
0 0  0
0 0  0
0 0  0
0 0  0
0 0  0
0 0  0
0 0  0
0 0  0
0 0  0
0 0  0
0 0  0
0 0  0
0 0  0
0 0  0
0 0  0
0 0  0
0 0  0
0 0  0
0 0  0
0 0  0
0 0  0
0 0  0
0 0  0
0 0  0
0 0  0
0 0  0
0 0  0
0 0  0
0 0  0
0 0  0
0 0  0
0 0  0
0 0  0
0 0  0
0 0  0
0 0  0
0 0  0
0 0  0
0 0  0
0 0  0
0 0  0
0 0  0
0 0  0
0 0  0
0 0  0
0 0  0
0 0  0
0 0  0
0 0  0
0 0  0
0 0  0
0 0  0
0 0  0
0 0  0
0 0  0
0 0  0
0 0  0
0 0  0
0 0  0
0 0  0
0 0  0
0 0  0
0 0  0
0 0  0
0 0  0
0 0  0
0 0  0
0 0  0
0 0  0
0 0  0
0 0  0
0 0  0
0 0  0
0 0  0
0 0  0
0 0  0
0 0  0
0 0  0
0 0  0
0 0  0
0 0  0
0 0  0
0 0  0
0 0  0
0 0  0
0 0  0
0 0  0
0 0  0
0 0  0
0 0  0
0 0  0
0 0  0
0 0  0
0 0  0
0 0  0
0 0  0
0 0  0
0 0  0
0 0  0
0 0  0
0 0  0
0 0  0
0 0  0
0 0  0
0 0  0
0 0  0
0 0  0
0 0  0
0 0  0
0 0  0
0 0  0
0 0  0
0 0  0
0 0  0
0 0  0
0 0  0
0 0  0
0 0  0
0 0  0
0 0  0
0 0  0
0 0  0
0 0  0
0 0  0
0 0  0
0 0  0
0 0  0
0 0  0
0 0  0
0 0  0
0 0  0
0 0  0
0 0  0
0 0  0
0 0  0
0 0  0
0 0  0
0 0  0
0 0  0
0 0  0
0 0  0
0 0  0
0 0  0
0 0  0
0 0  0
0 0  0
0 0  0
0 0  0
0 0  0
0 0  0
0 0  0
0 0  0
0 0  0
0 0  0
0 0  0
0 0  0
0 0  0
0 0  0
0 0  0
0 0  0
0 0  0
0 0  0
0 0  0
0 0  0
0 0  0
0 0  0
0 0  0
0 0  0
0 0  0
0 0  0
0 0  0
0 0  0
0 0  0
0 0  0
0 0  0
0 0  0
0 0  0
0 0  0
0 0  0
0 0  0
0 0  0
0 0  0
0 0  0
0 0  0
0 0  0
0 0  0
0 0  0
0 0  0
0 0  0
0 0  0
0 0  0
0 0  0
0 0  0
0 0  0
0 0  0
0 0  0
0 0  0
0 0  0
0 0  0
0 0  0
0 0  0
0 0  0
0 0  0
0 0  0
0 0  0
0 0  0
0 0  0
0 0  0
0 0  0
0 0  0
0 0  0
0 0  0
0 0  0
0 0  0
0 0  0
0 0  0
0 0  0
0 0  0
0 0  0
0 0  0
0 0  0
0 0  0
0 0  0
0 0  0
0 0  0
0 0  0
0 0  0
0 0  0
0 0  0
0 0  0
0 0  0
0 0  0
0 0  0
0 0  0
0 0  0
0 0  0
0 0  0
0 0  0
0 0  0
0 0  0
0 0  0
0 0  0
0 0  0
0 0  0
0 0  0
0 0  0
0 0  0
0 0  0
0 0  0
0 0  0
0 0  0
0 0  0
0 0  0
0 0  0
0 0  0
0 0  0
0 0  0
0 0  0
0 0  0
0 0  0
0 0  0
0 0  0
0 0  0
0 0  0
0 0  0
0 0  0
0 0  0
0 0  0
0 0  0
0 0  0
0 0  0
0 0  0
0 0  0
0 0  0
0 0  0
0 0  0
0 0  0
0 0  0
0 0  0
0 0  0
0 0  0
0 0  0
0 0  0
0 0  0
0 0  0
0 0  0
0 0  0
0 0  0
0 0  0
0 0  0
0 0  0
0 0  0
0 0  0
0 0  0
0 0  0
0 0  0
0 0  0
0 0  0
0 0  0
0 0  0
0 0  0
0 0  0
0 0  0
0 0  0
0 0  0
0 0  0
0 0  0
0 0  0
0 0  0
0 0  0
0 0  0
0 0  0
0 0  0
0 0  0
0 0  0
0 0  0
0 0  0
0 0  0
0 0  0
0 0  0
0 0  0
0 0  0
0 0  0
0 0  0
0 0  0
0 0  0
0 0  0
0 0  0
0 0  0
0 0  0
0 0  0
0 0  0
0 0  0
0 0  0
0 0  0
0 0  0
0 0  0
0 0  0
0 0  0
0 0  0
0 0  0
0 0  0
0 0  0
0 0  0
0 0  0
0 0  0
0 0  0
0 0  0
0 0  0
0 0  0
0 0  0
0 0  0
0 0  0
0 0  0
0 0  0
0 0  0
0 0  0
0 0  0
0 0  0
0 0  0
0 0  0
0 0  0
0 0  0
0 0  0
0 0  0
0 0  0
0 0  0
0 0  0
0 0  0
0 0  0
0 0  0
0 0  0
0 0  0
0 0  0
0 0  0
0 0  0
0 0  0
0 0  0
0 0  0
0 0  0
0 0  0
0 0  0
0 0  0
0 0  0
0 0  0
0 0  0
0 0  0
0 0  0
0 0  0
0 0  0
0 0  0
0 0  0
0 0  0
0 0  0
0 0  0
0 0  0
0 0  0
0 0  0
0 0  0
0 0  0
0 0  0
0 0  0
0 0  0
0 0  0
0 0  0
0 0  0
0 0  0
0 0  0
0 0  0
0 0  0
0 0  0
0 0  0
0 0  0
0 0  0
0 0  0
0 0  0
0 0  0
0 0  0
0 0  0
0 0  0
0 0  0
0 0  0
0 0  0
0 0  0
0 0  0
0 0  0
0 0  0
0 0  0
0 0  0
0 0  0
0 0  0
0 0  0
0 0  0
0 0  0
0 0  0
0 0  0
0 0  0
0 0  0
0 0  0
0 0  0
0 0  0
0 0  0
0 0  0
0 0  0
0 0  0
0 0  0
0 0  0
0 0  0
0 0  0
0 0  0
0 0  0
0 0  0
0 0  0
0 0  0
0 0  0
0 0  0
0 0  0
0 0  0
0 0  0
0 0  0
0 0  0
0 0  0
0 0  0
0 0  0
0 0  0
0 0  0
0 0  0
0 0  0
0 0  0
0 0  0
0 0  0
0 0  0
0 0  0
0 0  0
0 0  0
0 0  0
0 0  0
0 0  0
0 0  0
0 0  0
0 0  0
0 0  0
0 0  0
0 0  0
0 0  0
0 0  0
0 0  0
0 0  0
0 0  0
0 0  0
0 0  0
0 0  0
0 0  0
0 0  0
0 0  0
0 0  0
0 0  0
0 0  0
0 0  0
0 0  0
0 0  0
0 0  0
0 0  0
0 0  0
0 0  0
0 0  0
0 0  0
0 0  0
0 0  0
0 0  0
0 0  0
0 0  0
0 0  0
0 0  0
0 0  0
0 0  0
0 0  0
0 0  0
0 0  0
0 0  0
0 0  0
0 0  0
0 0  0
0 0  0
0 0  0
0 0  0
0 0  0
0 0  0
0 0  0
0 0  0
0 0  0
0 0  0
0 0  0
0 0  0
0 0  0
0 0  0
0 0  0
0 0  0
0 0  0
0 0  0
0 0  0
0 0  0
0 0  0
0 0  0
0 0  0
0 0  0
0 0  0
0 0  0
0 0  0
0 0  0
0 0  0
0 0  0
0 0  0
0 0  0
0 0  0
0 0  0
0 0  0
0 0  0
0 0  0
0 0  0
0 0  0
0 0  0
0 0  0
0 0  0
0 0  0
0 0  0
0 0  0
0 0  0
0 0  0
0 0  0
0 0  0
0 0  0
0 0  0
0 0  0
0 0  0
0 0  0
0 0  0
0 0  0
0 0  0
0 0  0
0 0  0
0 0  0
0 0  0
0 0  0
0 0  0
0 0  0
0 0  0
0 0  0
0 0  0
0 0  0
0 0  0
0 0  0
0 0  0
0 0  0
0 0  0
0 0  0
0 0  0
0 0  0
0 0  0
0 0  0
0 0  0
0 0  0
0 0  0
0 0  0
0 0  0
0 0  0
0 0  0
0 0  0
0 0  0
0 0  0
0 0  0
0 0  0
0 0  0
0 0  0
0 0  0
0 0  0
0 0  0
0 0  0
0 0  0
0 0  0
0 0  0
0 0  0
0 0  0
0 0  0
0 0  0
0 0  0
0 0  0
0 0  0
0 0  0
0 0  0
0 0  0
0 0  0
0 0  0
0 0  0
0 0  0
0 0  0
0 0  0
0 0  0
0 0  0
0 0  0
0 0  0
0 0  0
0 0  0

SCALARS pressure double 1
LOOKUP_TABLE default
0.0462933
0
0.0732937
0.284537
0.406542
0.48048
0.527536
0.555817
0.573398
0.582768
0.584802
0.579215
0.565297
0.537844
0.495404
0.448378
0.419228
0.400654
0.391479
0.386404
0.383703
0.384705
0.382871
0.389002
0.386596
0.399914
0.396338
0.419711
0.413977
0.449591
0.439615
0.485797
0.465998
0.512975
0.476385
0.510104
0.458588
0.472919
0.425911
0.428056
0.412197
0.411729
0.436434
0.427134
0.469457
0.444891
0.481058
0.454102
0.482594
0.547694
-0.0101478
-0.0613686
0.0463392
0.158365
0.240521
0.296257
0.333223
0.355207
0.370639
0.376416
0.379119
0.375606
0.363468
0.337288
0.285699
0.216938
0.197357
0.179956
0.177641
0.17308
0.170763
0.176684
0.166215
0.186981
0.162375
0.206668
0.160483
0.239475
0.162802
0.286838
0.172145
0.34415
0.186203
0.389079
0.192516
0.387753
0.180784
0.326862
0.167287
0.23772
0.191461
0.176159
0.263595
0.166579
0.327581
0.174137
0.33589
0.187246
0.267254
0.305973
-0.0296481
-0.0329651
0.00470986
0.0515199
0.0911459
0.119986
0.139617
0.152483
0.160379
0.165454
0.166684
0.165878
0.163147
0.147666
0.0801753
-0.0743459
-0.0385262
-0.0633881
-0.0467584
-0.0476234
-0.0654952
-0.0175205
-0.100471
0.0289134
-0.156115
0.0989723
-0.238697
0.198088
-0.35236
0.326956
-0.488139
0.468734
-0.612749
0.575117
-0.668621
0.576804
-0.599529
0.427866
-0.386731
0.147191
-0.0709199
-0.179648
0.247819
-0.438607
0.445259
-0.539212
0.443933
-0.375161
0.141427
0
-0.0582562
-0.0550529
-0.0551671
-0.0582123
-0.0577462
-0.0589209
-0.0573883
-0.0575254
-0.0558268
-0.0561657
-0.053868
-0.0531708
-0.0375848
0
-0.0438623
0
0
0
0
0
0
0
0
0
0
0
0
0
0
0
0
0
0
0
0
0
0
0
0
0
0
0
0
0
0
0
0
0
0
0
0
0
0
0
0
0
0
0
0
0
0
0
0
0
0
0
0
0
0
0
0
0
0
0
0
0
0
0
0
0
0
0
0
0
0
0
0
0
0
0
0
0
0
0
0
0
0
0
0
0
0
0
0
0
0
0
0
0
0
0
0
0
0
0
0
0
0
0
0
0
0
0
0
0
0
0
0
0
0
0
0
0
0
0
0
0
0
0
0
0
0
0
0
0
0
0
0
0
0
0
0
0
0
0
0
0
0
0
0
0
0
0
0
0
0
0
0
0
0
0
0
0
0
0
0
0
0
0
0
0
0
0
0
0
0
0
0
0
0
0
0
0
0
0
0
0
0
0
0
0
0
0
0
0
0
0
0
0
0
0
0
0
0
0
0
0
0
0
0
0
0
0
0
0
0
0
0
0
0
0
0
0
0
0
0
0
0
0
0
0
0
0
0
0
0
0
0
0
0
0
0
0
0
0
0
0
0
0
0
0
0
0
0
0
0
0
0
0
0
0
0
0
0
0
0
0
0
0
0
0
0
0
0
0
0
0
0
0
0
0
0
0
0
0
0
0
0
0
0
0
0
0
0
0
0
0
0
0
0
0
0
0
0
0
0
0
0
0
0
0
0
0
0
0
0
0
0
0
0
0
0
0
0
0
0
0
0
0
0
0
0
0
0
0
0
0
0
0
0
0
0
0
0
0
0
0
0
0
0
0
0
0
0
0
0
0
0
0
0
0
0
0
0
0
0
0
0
0
0
0
0
0
0
0
0
0
0
0
0
0
0
0
0
0
0
0
0
0
0
0
0
0
0
0
0
0
0
0
0
0
0
0
0
0
0
0
0
0
0
0
0
0
0
0
0
0
0
0
0
0
0
0
0
0
0
0
0
0
0
0
0
0
0
0
0
0
0
0
0
0
0
0
0
0
0
0
0
0
0
0
0
0
0
0
0
0
0
0
0
0
0
0
0
0
0
0
0
0
0
0
0
0
0
0
0
0
0
0
0
0
0
0
0
0
0
0
0
0
0
0
0
0
0
0
0
0
0
0
0
0
0
0
0
0
0
0
0
0
0
0
0
0
0
0
0
0
0
0
0
0
0
0
0
0
0
0
0
0
0
0
0
0
0
0
0
0
0
0
0
0
0
0
0
0
0
0
0
0
0
0
0
0
0
0
0
0
0
0
0
0
0
0
0
0
0
0
0
0
0
0
0
0
0
0
0
0
0
0
0
0
0
0
0
0
0
0
0
0
0
0
0
0
0
0
0
0
0
0
0
0
0
0
0
0
0
0
0
0
0
0
0
0
0
0
0
0
0
0
0
0
0
0
0
0
0
0
0
0
0
0
0
0
0
0
0
0
0
0
0
0
0
0
0
0
0
0
0
0
0
0
0
0
0
0
0
0
0
0
0
0
0
0
0
0
0
0
0
0
0
0
0
0
0
0
0
0
0
0
0
0
0
0
0
0
0
0
0
0
0
0
0
0
0
0
0
0
0
0
0
0
0
0
0
0
0
0
0
0
0
0
0
0
0
0
0
0
0
0
0
0
0
0
0
0
0
0
0
0
0
0
0
0
0
0
0
0
0
0
0
0
0
0
0
0
0
0
0
0
0
0
0
0
0
0
0
0
0
0
0
0
0
0
0
0
0
0
0
0
0
0
0
0
0
0
0
0
0
0
0
0
0
0
0
0
0
0
0
0
0
0
0
0
0
0
0
0
0
0
0
0
0
0
0
0
0
0
0
0
0
0
0
0
0
0
0
0
0
0
0
0
0
0
0
0
0
0
0
0
0
0
0
0
0
0
0
0
0
0
0
0
SCALARS rhs double 1
LOOKUP_TABLE default
-7.88778
-24.3203
-6.29056
-5.40061
-5.3592
-5.33209
-5.33612
-5.29954
-5.33411
-5.32249
-5.32393
-5.34986
-5.36872
-5.38593
-5.36612
-5.3348
-5.29592
-5.27253
-5.26224
-5.25445
-5.25682
-5.24326
-5.25191
-5.22919
-5.25259
-5.21824
-5.25879
-5.20804
-5.26566
-5.20336
-5.27698
-5.21238
-5.29224
-5.23188
-5.29195
-5.23911
-5.25903
-5.22108
-5.2092
-5.21442
-5.1854
-5.21127
-5.20683
-5.23456
-5.20881
-5.26024
-5.21782
-5.29059
-4.47339
-7.67649
-0.365046
-2.07643
-0.23979
-0.265638
-0.265646
-0.298663
-0.274535
-0.311622
-0.282864
-0.299027
-0.315937
-0.314116
-0.34139
-0.369895
-0.300677
-0.292442
-0.251745
-0.239214
-0.250423
-0.2131
-0.273591
-0.186883
-0.32891
-0.191748
-0.46571
-0.294813
-0.785031
-0.572922
-1.45285
-0.989059
-2.60209
-1.59476
-4.00429
-2.14837
-4.75769
-2.1299
-3.87995
-1.32962
-1.73702
-0.380526
-0.247765
-0.483387
-0.642846
-2.16756
-1.38623
-3.17656
-1.4231
-1.67162
1.20661
-2.57234
-0.298755
-0.245419
-0.236195
-0.249883
-0.262411
-0.28301
-0.262373
-0.280057
-0.274614
-0.280987
-0.279914
-0.287093
-0.308785
-0.2611
-0.138041
-0.109652
0.619498
2.31818
1.4127
3.99491
4.29077
6.75647
6.15397
6.05642
6.76641
10.0778
10.0995
9.94218
18.1065
18.292
17.2485
15.8477
13.9193
11.8404
12.1901
13.2722
13.2578
11.2736
7.31997
7.29024
7.07932
5.38243
4.08928
5.01718
3.7797
1.83111
2.4903
3.0523
0.865567
0.0530365
1.11588
1.13806
1.21264
1.27345
1.40475
1.49712
2.60901
2.60874
3.5237
5.05647
4.70136
3.50158
6.63275
6.29168
11.3052
13.0347
14.0969
15.7691
35.7955
28.0565
20.5298
16.247
13.5584
10.8402
10.7865
8.4957
6.05141
2.40646
0
0
0
0
0
0
0
0
0
0
0
0
0
0
0
0
0
0
0
0
0
0
5.36272
5.33529
5.71969
5.67828
4.75936
4.29628
3.76069
4.49375
4.93377
7.83712
7.96544
8.66736
9.26158
8.97228
43.8307
32.8547
19.5017
9.00999
0
0
0
0
0
0
0
0
0
0
0
0
0
0
0
0
0
0
0
0
0
0
0
0
0
0
0
0
0
0
0
0
6.36602
6.31525
5.9657
5.40632
4.81609
4.65051
4.54086
5.49725
6.68708
4.04255
4.68643
4.81997
12.4974
35.3186
0
0
0
0
0
0
0
0
0
0
0
0
0
0
0
0
0
0
0
0
0
0
0
0
0
0
0
0
0
0
0
0
0
0
0
0
1.47614
1.54411
2.09799
2.47435
3.77929
5.12603
6.33856
5.10183
2.09579
1.47098
2.53607
14.3387
26.3021
0
0
0
0
0
0
0
0
0
0
0
0
0
0
0
0
0
0
0
0
0
0
0
0
0
0
0
0
0
0
0
0
0
0
0
0
0
2.59543
2.54951
1.62039
1.22694
0.49828
0.777197
0.916648
3.70181
7.89906
8.9678
11.6117
27.2717
0
0
0
0
0
0
0
0
0
0
0
0
0
0
0
0
0
0
0
0
0
0
0
0
0
0
0
0
0
0
0
0
0
0
0
0
0
0
2.45787
2.59584
4.01582
4.53242
6.43299
7.47839
9.23983
7.89527
5.98596
8.49533
41.2731
0
0
0
0
0
0
0
0
0
0
0
0
0
0
0
0
0
0
0
0
0
0
0
0
0
0
0
0
0
0
0
0
0
0
0
0
0
0
0
9.36633
9.33066
8.04142
9.25902
7.69325
7.78758
9.09454
10.208
11.1703
21.7759
3.2041
0
0
0
0
0
0
0
0
0
0
0
0
0
0
0
0
0
0
0
0
0
0
0
0
0
0
0
0
0
0
0
0
0
0
0
0
0
0
0
7.92952
10.0992
10.1145
8.86149
11.2589
12.4355
10.8064
8.57914
8.60392
43.2779
0
0
0
0
0
0
0
0
0
0
0
0
0
0
0
0
0
0
0
0
0
0
0
0
0
0
0
0
0
0
0
0
0
0
0
0
0
0
0
0
13.2058
10.8439
11.0393
13.0106
10.7272
10.2862
9.48307
9.57063
8.67562
33.2233
0
0
0
0
0
0
0
0
0
0
0
0
0
0
0
0
0
0
0
0
0
0
0
0
0
0
0
0
0
0
0
0
0
0
0
0
0
0
0
0
8.71388
9.82855
9.83715
7.65861
8.9401
7.02241
6.34758
6.44313
5.90605
26.1906
0
0
0
0
0
0
0
0
0
0
0
0
0
0
0
0
0
0
0
0
0
0
0
0
0
0
0
0
0
0
0
0
0
0
0
0
0
0
0
0
7.061
5.55892
5.71513
6.83869
5.56628
5.6724
5.42452
5.43401
4.26976
17.1298
0
0
0
0
0
0
0
0
0
0
0
0
0
0
0
0
0
0
0
0
0
0
0
0
0
0
0
0
0
0
0
0
0
0
0
0
0
0
0
0
6.55202
6.55536
6.55982
5.31204
5.40986
6.30896
5.08555
5.09432
5.2091
10.3371
0
0
0
0
0
0
0
0
0
0
0
0
0
0
0
0
0
0
0
0
0
0
0
0
0
0
0
0
0
0
0
0
0
0
0
0
0
0
0
0
5.52783
5.53996
5.54196
5.54121
5.54439
4.52522
5.16545
5.22779
16.4546
0
0
0
0
0
0
0
0
0
0
0
0
0
0
0
0
0
0
0
0
0
0
0
0
0
0
0
0
0
0
0
0
0
0
0
0
0
0
0
0
0
3.60674
3.66202
3.98033
3.98143
3.98244
3.98396
3.23505
3.31189
11.5415
0
0
0
0
0
0
0
0
0
0
0
0
0
0
0
0
0
0
0
0
0
0
0
0
0
0
0
0
0
0
0
0
0
0
0
0
0
0
0
0
0
6.01719
6.36025
5.75447
5.75462
5.75506
5.75536
5.75588
5.76119
8.30564
0
0
0
0
0
0
0
0
0
0
0
0
0
0
0
0
0
0
0
0
0
0
0
0
0
0
0
0
0
0
0
0
0
0
0
0
0
0
0
0
0
3.29611
2.74112
2.74112
2.74112
2.74112
2.74112
2.74112
2.74112
2.74112
0
0
0
0
0
0
0
0
0
0
0
0
0
0
0
0
0
0
0
0
0
0
0
0
0
0
0
0
0
0
0
0
0
0
0
0
0
0
0
0
0
0
0
0
0
0
0
0
0
0
0
0
0
0
0
0
0
0
0
0
0
0
0
0
0
0
0
0
0
0
0
0
0
0
0
0
0
0
0
0
0
0
0
0
0
0
0
0
0
0
0
