# vtk DataFile Version 4.0
Nusif Fluid VTK output
ASCII
DATASET STRUCTURED_POINTS
DIMENSIONS 50 20 1
ORIGIN 0 0 0 
SPACING 0.2 0.2 1
POINT_DATA 1000 

VECTORS velocity double
0.0538843 -0.0584121  0
0.162189 -0.0592049  0
0.27257 -0.0608057  0
0.386868 -0.0632184  0
0.506313 -0.066876  0
0.633358 -0.0704466  0
0.768992 -0.0754651  0
0.913895 -0.080557  0
1.06916 -0.0850789  0
1.23213 -0.0882406  0
1.39773 -0.0878104  0
1.55691 -0.0815768  0
1.69639 -0.0680509  0
1.80252 -0.0481708  0
1.86454 -0.0239143  0
1.87929 -0.00086977  0
1.85036 0.0197667  0
1.82558 0  0
0.912792 0  0
0 0  0
0 0  0
0 0  0
0 0  0
0 0  0
0 0  0
0 0  0
0 0  0
0 0  0
0 0  0
0 0  0
0 0  0
0 0  0
0 0  0
0 0  0
0 0  0
0 0  0
0 0  0
0 0  0
0 0  0
0 0  0
0 0  0
0 0  0
0 0  0
0 0  0
0 0  0
0 0  0
0 0  0
0 0  0
0 0  0
0 0  0
0.0530338 -0.174658  0
0.159653 -0.176966  0
0.268319 -0.181691  0
0.38047 -0.18906  0
0.498175 -0.198962  0
0.622889 -0.210342  0
0.75588 -0.22473  0
0.89836 -0.239679  0
1.05012 -0.253257  0
1.20948 -0.262405  0
1.37087 -0.260705  0
1.52419 -0.241151  0
1.65558 -0.199312  0
1.7518 -0.139229  0
1.80241 -0.0655022  0
1.82355 -0.0152059  0
1.83201 0.0395335  0
1.8288 0.0197667  0
0.912792 0  0
0 0  0
0 0  0
0 0  0
0 0  0
0 0  0
0 0  0
0 0  0
0 0  0
0 0  0
0 0  0
0 0  0
0 0  0
0 0  0
0 0  0
0 0  0
0 0  0
0 0  0
0 0  0
0 0  0
0 0  0
0 0  0
0 0  0
0 0  0
0 0  0
0 0  0
0 0  0
0 0  0
0 0  0
0 0  0
0 0  0
0 0  0
0.0514463 -0.288734  0
0.154846 -0.292476  0
0.260027 -0.30023  0
0.368623 -0.312175  0
0.482734 -0.327287  0
0.603249 -0.346839  0
0.731262 -0.369587  0
0.868746 -0.39386  0
1.015 -0.416463  0
1.1678 -0.430988  0
1.32142 -0.426792  0
1.46354 -0.390581  0
1.57854 -0.316353  0
1.65476 -0.214661  0
1.6727 -0.0736156  0
1.66314 -0.0286722  0
1.74758 0.00543064  0
0.916007 0.0197667  0
0 0  0
0 0  0
0 0  0
0 0  0
0 0  0
0 0  0
0 0  0
0 0  0
0 0  0
0 0  0
0 0  0
0 0  0
0 0  0
0 0  0
0 0  0
0 0  0
0 0  0
0 0  0
0 0  0
0 0  0
0 0  0
0 0  0
0 0  0
0 0  0
0 0  0
0 0  0
0 0  0
0 0  0
0 0  0
0 0  0
0 0  0
0 0  0
0.0491334 -0.398938  0
0.147831 -0.403985  0
0.248101 -0.414463  0
0.351931 -0.429978  0
0.460587 -0.450763  0
0.574808 -0.477515  0
0.696405 -0.508595  0
0.826599 -0.541935  0
0.965006 -0.573224  0
1.10938 -0.592161  0
1.25237 -0.582491  0
1.37573 -0.520514  0
1.45876 -0.404521  0
1.48815 -0.247206  0
1.55795 -0.155631  0
1.64545 -0.0143361  0
0.831569 -0.0143361  0
0 0  0
0 0  0
0 0  0
0 0  0
0 0  0
0 0  0
0 0  0
0 0  0
0 0  0
0 0  0
0 0  0
0 0  0
0 0  0
0 0  0
0 0  0
0 0  0
0 0  0
0 0  0
0 0  0
0 0  0
0 0  0
0 0  0
0 0  0
0 0  0
0 0  0
0 0  0
0 0  0
0 0  0
0 0  0
0 0  0
0 0  0
0 0  0
0 0  0
0.0462342 -0.503704  0
0.139011 -0.509759  0
0.233273 -0.522511  0
0.330641 -0.541658  0
0.431954 -0.568346  0
0.538322 -0.601416  0
0.651636 -0.640381  0
0.772714 -0.68205  0
0.901556 -0.720925  0
1.03626 -0.743741  0
1.16891 -0.726529  0
1.2783 -0.629155  0
1.32338 -0.438859  0
1.40576 -0.343033  0
0.744077 -0.123603  0
0 0  0
0 0  0
0 0  0
0 0  0
0 0  0
0 0  0
0 0  0
0 0  0
0 0  0
0 0  0
0 0  0
0 0  0
0 0  0
0 0  0
0 0  0
0 0  0
0 0  0
0 0  0
0 0  0
0 0  0
0 0  0
0 0  0
0 0  0
0 0  0
0 0  0
0 0  0
0 0  0
0 0  0
0 0  0
0 0  0
0 0  0
0 0  0
0 0  0
0 0  0
0 0  0
0.0429441 -0.601576  0
0.128641 -0.608892  0
0.215246 -0.623956  0
0.304524 -0.646861  0
0.39749 -0.678022  0
0.494908 -0.716772  0
0.598221 -0.762137  0
0.708401 -0.811331  0
0.825254 -0.857195  0
0.947115 -0.883727  0
1.06728 -0.859183  0
1.17885 -0.732451  0
1.27769 -0.479693  0
0.661688 -0.21943  0
0 0  0
0 0  0
0 0  0
0 0  0
0 0  0
0 0  0
0 0  0
0 0  0
0 0  0
0 0  0
0 0  0
0 0  0
0 0  0
0 0  0
0 0  0
0 0  0
0 0  0
0 0  0
0 0  0
0 0  0
0 0  0
0 0  0
0 0  0
0 0  0
0 0  0
0 0  0
0 0  0
0 0  0
0 0  0
0 0  0
0 0  0
0 0  0
0 0  0
0 0  0
0 0  0
0 0  0
0.0387651 -0.692124  0
0.116116 -0.700744  0
0.194533 -0.717556  0
0.275296 -0.743407  0
0.358502 -0.778011  0
0.445357 -0.82145  0
0.537266 -0.872359  0
0.634408 -0.927963  0
0.736311 -0.979275  0
0.838454 -1.0058  0
0.927715 -0.966737  0
0.966921 -0.785605  0
0.48346 -0.653066  0
0 0  0
0 0  0
0 0  0
0 0  0
0 0  0
0 0  0
0 0  0
0 0  0
0 0  0
0 0  0
0 0  0
0 0  0
0 0  0
0 0  0
0 0  0
0 0  0
0 0  0
0 0  0
0 0  0
0 0  0
0 0  0
0 0  0
0 0  0
0 0  0
0 0  0
0 0  0
0 0  0
0 0  0
0 0  0
0 0  0
0 0  0
0 0  0
0 0  0
0 0  0
0 0  0
0 0  0
0 0  0
0.0342139 -0.774675  0
0.102803 -0.783862  0
0.172179 -0.801956  0
0.242726 -0.830036  0
0.31541 -0.867466  0
0.391114 -0.914693  0
0.47037 -0.970167  0
0.553427 -1.03051  0
0.639244 -1.08459  0
0.722795 -1.10606  0
0.798815 -1.0469  0
0.900828 -0.835616  0
0.48346 -0.392803  0
0 0  0
0 0  0
0 0  0
0 0  0
0 0  0
0 0  0
0 0  0
0 0  0
0 0  0
0 0  0
0 0  0
0 0  0
0 0  0
0 0  0
0 0  0
0 0  0
0 0  0
0 0  0
0 0  0
0 0  0
0 0  0
0 0  0
0 0  0
0 0  0
0 0  0
0 0  0
0 0  0
0 0  0
0 0  0
0 0  0
0 0  0
0 0  0
0 0  0
0 0  0
0 0  0
0 0  0
0 0  0
0.0295518 -0.848096  0
0.0886771 -0.857525  0
0.148088 -0.876866  0
0.208298 -0.906299  0
0.269959 -0.945717  0
0.333392 -0.995616  0
0.399181 -1.05424  0
0.467796 -1.11805  0
0.538757 -1.17406  0
0.606145 -1.18759  0
0.637544 -1.08282  0
0.318772 -0.984223  0
0 0  0
0 0  0
0 0  0
0 0  0
0 0  0
0 0  0
0 0  0
0 0  0
0 0  0
0 0  0
0 0  0
0 0  0
0 0  0
0 0  0
0 0  0
0 0  0
0 0  0
0 0  0
0 0  0
0 0  0
0 0  0
0 0  0
0 0  0
0 0  0
0 0  0
0 0  0
0 0  0
0 0  0
0 0  0
0 0  0
0 0  0
0 0  0
0 0  0
0 0  0
0 0  0
0 0  0
0 0  0
0 0  0
0.0247353 -0.912017  0
0.0741621 -0.921679  0
0.123475 -0.941581  0
0.173094 -0.9715  0
0.223252 -1.01231  0
0.274054 -1.06354  0
0.325927 -1.12411  0
0.379503 -1.1904  0
0.436671 -1.24993  0
0.506229 -1.26375  0
0.591754 -1.11213  0
0.318772 -0.541409  0
0 0  0
0 0  0
0 0  0
0 0  0
0 0  0
0 0  0
0 0  0
0 0  0
0 0  0
0 0  0
0 0  0
0 0  0
0 0  0
0 0  0
0 0  0
0 0  0
0 0  0
0 0  0
0 0  0
0 0  0
0 0  0
0 0  0
0 0  0
0 0  0
0 0  0
0 0  0
0 0  0
0 0  0
0 0  0
0 0  0
0 0  0
0 0  0
0 0  0
0 0  0
0 0  0
0 0  0
0 0  0
0 0  0
0.0200756 -0.966528  0
0.0600287 -0.976271  0
0.0996425 -0.996103  0
0.138833 -1.02583  0
0.177524 -1.06691  0
0.21579 -1.11821  0
0.253305 -1.17892  0
0.2898 -1.2458  0
0.324625 -1.30661  0
0.36268 -1.32472  0
0.191959 -1.1785  0
0 0  0
0 0  0
0 0  0
0 0  0
0 0  0
0 0  0
0 0  0
0 0  0
0 0  0
0 0  0
0 0  0
0 0  0
0 0  0
0 0  0
0 0  0
0 0  0
0 0  0
0 0  0
0 0  0
0 0  0
0 0  0
0 0  0
0 0  0
0 0  0
0 0  0
0 0  0
0 0  0
0 0  0
0 0  0
0 0  0
0 0  0
0 0  0
0 0  0
0 0  0
0 0  0
0 0  0
0 0  0
0 0  0
0 0  0
0.0158776 -1.01228  0
0.0475292 -1.02201  0
0.0788234 -1.04136  0
0.108451 -1.06948  0
0.136494 -1.11023  0
0.16361 -1.16045  0
0.187731 -1.21837  0
0.208616 -1.28381  0
0.226158 -1.34107  0
0.243635 -1.35584  0
0.126757 -1.2457  0
0 0  0
0 0  0
0 0  0
0 0  0
0 0  0
0 0  0
0 0  0
0 0  0
0 0  0
0 0  0
0 0  0
0 0  0
0 0  0
0 0  0
0 0  0
0 0  0
0 0  0
0 0  0
0 0  0
0 0  0
0 0  0
0 0  0
0 0  0
0 0  0
0 0  0
0 0  0
0 0  0
0 0  0
0 0  0
0 0  0
0 0  0
0 0  0
0 0  0
0 0  0
0 0  0
0 0  0
0 0  0
0 0  0
0 0  0
0.0128298 -1.0509  0
0.038775 -1.06097  0
0.0652782 -1.0803  0
0.0872043 -1.10226  0
0.105691 -1.14418  0
0.124578 -1.19264  0
0.139124 -1.24494  0
0.148386 -1.30745  0
0.153585 -1.36025  0
0.159378 -1.36997  0
0.0818126 -1.30633  0
0 0  0
0 0  0
0 0  0
0 0  0
0 0  0
0 0  0
0 0  0
0 0  0
0 0  0
0 0  0
0 0  0
0 0  0
0 0  0
0 0  0
0 0  0
0 0  0
0 0  0
0 0  0
0 0  0
0 0  0
0 0  0
0 0  0
0 0  0
0 0  0
0 0  0
0 0  0
0 0  0
0 0  0
0 0  0
0 0  0
0 0  0
0 0  0
0 0  0
0 0  0
0 0  0
0 0  0
0 0  0
0 0  0
0 0  0
0.0116543 -1.08535  0
0.0357115 -1.09657  0
0.061603 -1.11725  0
0.0821902 -1.12296  0
0.0988649 -1.16871  0
0.11477 -1.21296  0
0.127395 -1.26185  0
0.133908 -1.31634  0
0.13018 -1.36287  0
0.126235 -1.37422  0
0.0631175 -1.35552  0
0 0  0
0 0  0
0 0  0
0 0  0
0 0  0
0 0  0
0 0  0
0 0  0
0 0  0
0 0  0
0 0  0
0 0  0
0 0  0
0 0  0
0 0  0
0 0  0
0 0  0
0 0  0
0 0  0
0 0  0
0 0  0
0 0  0
0 0  0
0 0  0
0 0  0
0 0  0
0 0  0
0 0  0
0 0  0
0 0  0
0 0  0
0 0  0
0 0  0
0 0  0
0 0  0
0 0  0
0 0  0
0 0  0
0 0  0
0.0124762 -1.11448  0
0.0318261 -1.12088  0
0.0386997 -1.13579  0
0.0881101 -1.13292  0
0.143479 -0.589144  0
0.1597 -0.609643  0
0.17603 -0.634074  0
0.179294 -0.658277  0
0.159011 -0.67946  0
0.133883 -0.687108  0
0.0631175 -0.687108  0
0 0  0
0 0  0
0 0  0
0 0  0
0 0  0
0 0  0
0 0  0
0 0  0
0 0  0
0 0  0
0 0  0
0 0  0
0 0  0
0 0  0
0 0  0
0 0  0
0 0  0
0 0  0
0 0  0
0 0  0
0 0  0
0 0  0
0 0  0
0 0  0
0 0  0
0 0  0
0 0  0
0 0  0
0 0  0
0 0  0
0 0  0
0 0  0
0 0  0
0 0  0
0 0  0
0 0  0
0 0  0
0 0  0
0 0  0
0.0128781 -0.563477  0
0.0362414 -0.563879  0
0.0427132 -0.567893  0
0.0193499 -0.567893  0
0 0  0
0 0  0
0 0  0
0 0  0
0 0  0
0 0  0
0 0  0
0 0  0
0 0  0
0 0  0
0 0  0
0 0  0
0 0  0
0 0  0
0 0  0
0 0  0
0 0  0
0 0  0
0 0  0
0 0  0
0 0  0
0 0  0
0 0  0
0 0  0
0 0  0
0 0  0
0 0  0
0 0  0
0 0  0
0 0  0
0 0  0
0 0  0
0 0  0
0 0  0
0 0  0
0 0  0
0 0  0
0 0  0
0 0  0
0 0  0
0 0  0
0 0  0
0 0  0
0 0  0
0 0  0
0 0  0
0 0  0
0 0  0
0 0  0
0 0  0
0 0  0
0 0  0
0 0  0
0 0  0
0 0  0
0 0  0
0 0  0
0 0  0
0 0  0
0 0  0
0 0  0
0 0  0
0 0  0
0 0  0
0 0  0
0 0  0
0 0  0
0 0  0
0 0  0
0 0  0
0 0  0
0 0  0
0 0  0
0 0  0
0 0  0
0 0  0
0 0  0
0 0  0
0 0  0
0 0  0
0 0  0
0 0  0
0 0  0
0 0  0
0 0  0
0 0  0
0 0  0
0 0  0
0 0  0
0 0  0
0 0  0
0 0  0
0 0  0
0 0  0
0 0  0
0 0  0
0 0  0
0 0  0
0 0  0
0 0  0
0 0  0
0 0  0
0 0  0
0 0  0
0 0  0
0 0  0
0 0  0
0 0  0
0 0  0
0 0  0
0 0  0
0 0  0
0 0  0
0 0  0
0 0  0
0 0  0
0 0  0
0 0  0
0 0  0
0 0  0
0 0  0
0 0  0
0 0  0
0 0  0
0 0  0
0 0  0
0 0  0
0 0  0
0 0  0
0 0  0
0 0  0
0 0  0
0 0  0
0 0  0
0 0  0
0 0  0
0 0  0
0 0  0
0 0  0
0 0  0
0 0  0
0 0  0
0 0  0
0 0  0
0 0  0
0 0  0
0 0  0
0 0  0
0 0  0
0 0  0
0 0  0
0 0  0
0 0  0
0 0  0
0 0  0
0 0  0
0 0  0
0 0  0
0 0  0
0 0  0
0 0  0
0 0  0
0 0  0
0 0  0
0 0  0
0 0  0
0 0  0
0 0  0
0 0  0
0 0  0
0 0  0
0 0  0
0 0  0
0 0  0
0 0  0
0 0  0
0 0  0
0 0  0
0 0  0
0 0  0
0 0  0
0 0  0
0 0  0
0 0  0
0 0  0
0 0  0
0 0  0
0 0  0
0 0  0
0 0  0
0 0  0
0 0  0
0 0  0
0 0  0
0 0  0
0 0  0
0 0  0
0 0  0
0 0  0
0 0  0
0 0  0
0 0  0
0 0  0
0 0  0
0 0  0
0 0  0
0 0  0
0 0  0
0 0  0
0 0  0
0 0  0
0 0  0
0 0  0
0 0  0
0 0  0
0 0  0
0 0  0
0 0  0
0 0  0
0 0  0
0 0  0
0 0  0
0 0  0
0 0  0
0 0  0
0 0  0
0 0  0
0 0  0
0 0  0
0 0  0
0 0  0
0 0  0
0 0  0
0 0  0
0 0  0
0 0  0
0 0  0
0 0  0
0 0  0
0 0  0
0 0  0
0 0  0
0 0  0
0 0  0
0 0  0
0 0  0

SCALARS pressure double 1
LOOKUP_TABLE default
2.89379
2.87675
2.84254
2.79035
2.71827
2.62757
2.50366
2.35635
2.17811
1.96064
1.70679
1.42378
1.12957
0.850513
0.616386
0.454796
0.370142
0.478844
0
0
0
0
0
0
0
0
0
0
0
0
0
0
0
0
0
0
0
0
0
0
0
0
0
0
0
0
0
0
0
0
2.67961
2.66292
2.62893
2.57673
2.5066
2.40819
2.28944
2.14118
1.95584
1.73392
1.47378
1.18227
0.878598
0.58982
0.342812
0.176742
-0.029087
0
0
0
0
0
0
0
0
0
0
0
0
0
0
0
0
0
0
0
0
0
0
0
0
0
0
0
0
0
0
0
0
0
2.45897
2.4424
2.40861
2.35702
2.28304
2.18588
2.06556
1.91302
1.72217
1.49113
1.21818
0.91204
0.592849
0.28797
0
-0.0330169
0
0
0
0
0
0
0
0
0
0
0
0
0
0
0
0
0
0
0
0
0
0
0
0
0
0
0
0
0
0
0
0
0
0
2.23336
2.21701
2.18327
2.13016
2.05457
1.9571
1.83474
1.67741
1.48084
1.2414
0.955235
0.631203
0.295856
-0.00182251
0
0
0
0
0
0
0
0
0
0
0
0
0
0
0
0
0
0
0
0
0
0
0
0
0
0
0
0
0
0
0
0
0
0
0
0
2.00493
1.98796
1.95254
1.89721
1.82274
1.72611
1.60331
1.44466
1.24465
0.996511
0.698073
0.358428
0.00151447
0
0
0
0
0
0
0
0
0
0
0
0
0
0
0
0
0
0
0
0
0
0
0
0
0
0
0
0
0
0
0
0
0
0
0
0
0
1.77381
1.75405
1.71798
1.66632
1.59583
1.50051
1.37738
1.21661
1.01367
0.76294
0.463236
0.11899
0
0
0
0
0
0
0
0
0
0
0
0
0
0
0
0
0
0
0
0
0
0
0
0
0
0
0
0
0
0
0
0
0
0
0
0
0
0
1.54009
1.52254
1.49081
1.44207
1.37037
1.27732
1.15526
0.997912
0.798881
0.550731
0.262007
-0.0176903
0
0
0
0
0
0
0
0
0
0
0
0
0
0
0
0
0
0
0
0
0
0
0
0
0
0
0
0
0
0
0
0
0
0
0
0
0
0
1.31209
1.29719
1.26612
1.21758
1.15081
1.06248
0.94692
0.795003
0.602052
0.361912
0.0819318
0
0
0
0
0
0
0
0
0
0
0
0
0
0
0
0
0
0
0
0
0
0
0
0
0
0
0
0
0
0
0
0
0
0
0
0
0
0
0
1.09143
1.07563
1.04603
1.00083
0.939657
0.858022
0.751881
0.612152
0.43105
0.203272
-0.0370877
0
0
0
0
0
0
0
0
0
0
0
0
0
0
0
0
0
0
0
0
0
0
0
0
0
0
0
0
0
0
0
0
0
0
0
0
0
0
0
0.876074
0.861395
0.833271
0.792051
0.737029
0.666004
0.573143
0.451689
0.290774
0.0759484
0
0
0
0
0
0
0
0
0
0
0
0
0
0
0
0
0
0
0
0
0
0
0
0
0
0
0
0
0
0
0
0
0
0
0
0
0
0
0
0
0.669705
0.654968
0.628279
0.589745
0.542156
0.484262
0.410552
0.315389
0.192297
0.0413895
0
0
0
0
0
0
0
0
0
0
0
0
0
0
0
0
0
0
0
0
0
0
0
0
0
0
0
0
0
0
0
0
0
0
0
0
0
0
0
0
0.473277
0.458659
0.431051
0.391354
0.352102
0.309788
0.25925
0.195444
0.114637
0.0225193
0
0
0
0
0
0
0
0
0
0
0
0
0
0
0
0
0
0
0
0
0
0
0
0
0
0
0
0
0
0
0
0
0
0
0
0
0
0
0
0
0.288795
0.27469
0.242964
0.189698
0.161157
0.138091
0.114315
0.0846102
0.045596
0.00430156
0
0
0
0
0
0
0
0
0
0
0
0
0
0
0
0
0
0
0
0
0
0
0
0
0
0
0
0
0
0
0
0
0
0
0
0
0
0
0
0
0.118065
0.107134
0.0752174
-0.0191564
-0.0182915
-0.015672
-0.00761522
0.00024691
0.00164574
-0.0211747
0
0
0
0
0
0
0
0
0
0
0
0
0
0
0
0
0
0
0
0
0
0
0
0
0
0
0
0
0
0
0
0
0
0
0
0
0
0
0
0
-0.0230176
-0.0221456
-0.00651622
0
0
0
0
0
0
0
0
0
0
0
0
0
0
0
0
0
0
0
0
0
0
0
0
0
0
0
0
0
0
0
0
0
0
0
0
0
0
0
0
0
0
0
0
0
0
0
0
0
0
0
0
0
0
0
0
0
0
0
0
0
0
0
0
0
0
0
0
0
0
0
0
0
0
0
0
0
0
0
0
0
0
0
0
0
0
0
0
0
0
0
0
0
0
0
0
0
0
0
0
0
0
0
0
0
0
0
0
0
0
0
0
0
0
0
0
0
0
0
0
0
0
0
0
0
0
0
0
0
0
0
0
0
0
0
0
0
0
0
0
0
0
0
0
0
0
0
0
0
0
0
0
0
0
0
0
0
0
0
0
0
0
0
0
0
0
0
0
0
0
0
0
0
0
0
0
0
0
0
0
0
0
0
0
0
0
0
0
0
0
0
0
0
0
0
0
0
0
0
0
0
0
0
0
0
0
0
0
0
0
0
0
0
0
0
0
0
0
0
0
0
0
0
0
0
0
0
0
0
0
0
0
0
0
0
0
0
0
0
0
0
0
0
0
0
0
0
0
0
0
0
0
0
0
0
0
0
0
0
0
0
0
0
0
0
0
0
0
0
0
0
0
0
0
0
0
0
0
0
0
0
0
0
0
0
0
0
0
0
0
0
0
0
0
0
0
0
SCALARS rhs double 1
LOOKUP_TABLE default
-5.659
-5.71758
-5.74772
-5.80466
-5.94614
-6.18842
-6.12943
-6.2364
-6.53895
-6.65706
-6.57999
-6.33741
-5.90524
-5.40064
-5.02804
-5.02878
-5.14644
1.25342
0
0
0
0
0
0
0
0
0
0
0
0
0
0
0
0
0
0
0
0
0
0
0
0
0
0
0
0
0
0
0
0
-0.525479
-0.589173
-0.618912
-0.73569
-0.893978
-0.670995
-0.947812
-1.24736
-1.17406
-1.29248
-1.31214
-0.991843
-0.47348
0.0292021
0.296507
0.71654
1.25342
0
0
0
0
0
0
0
0
0
0
0
0
0
0
0
0
0
0
0
0
0
0
0
0
0
0
0
0
0
0
0
0
0
-0.483764
-0.549142
-0.625251
-0.765832
-0.541801
-0.807553
-0.92848
-0.984549
-1.215
-1.18825
-1.0488
-0.62644
0.0511812
0.717118
4.94253
1.25342
0
0
0
0
0
0
0
0
0
0
0
0
0
0
0
0
0
0
0
0
0
0
0
0
0
0
0
0
0
0
0
0
0
0
-0.432905
-0.520292
-0.632566
-0.507508
-0.584651
-0.657385
-0.898168
-0.948982
-1.0738
-1.10768
-0.790591
-0.0458433
1.02631
4.94253
0
0
0
0
0
0
0
0
0
0
0
0
0
0
0
0
0
0
0
0
0
0
0
0
0
0
0
0
0
0
0
0
0
0
0
0
-0.380435
-0.498619
-0.478713
-0.353587
-0.567143
-0.659187
-0.810867
-0.960615
-0.986308
-0.904909
-0.474924
0.388492
4.94253
0
0
0
0
0
0
0
0
0
0
0
0
0
0
0
0
0
0
0
0
0
0
0
0
0
0
0
0
0
0
0
0
0
0
0
0
0
-0.336731
-0.384895
-0.281329
-0.403324
-0.560393
-0.681547
-0.714255
-0.786695
-0.816739
-0.728018
-0.245452
8.26859
0
0
0
0
0
0
0
0
0
0
0
0
0
0
0
0
0
0
0
0
0
0
0
0
0
0
0
0
0
0
0
0
0
0
0
0
0
0
-0.220872
-0.28512
-0.259541
-0.520943
-0.447742
-0.517435
-0.527707
-0.691531
-0.717171
-0.450926
0.748979
2.48254
0
0
0
0
0
0
0
0
0
0
0
0
0
0
0
0
0
0
0
0
0
0
0
0
0
0
0
0
0
0
0
0
0
0
0
0
0
0
-0.149777
-0.256667
-0.310335
-0.352611
-0.270197
-0.438635
-0.526928
-0.565242
-0.5318
-0.239556
11.3966
0
0
0
0
0
0
0
0
0
0
0
0
0
0
0
0
0
0
0
0
0
0
0
0
0
0
0
0
0
0
0
0
0
0
0
0
0
0
0
-0.208852
-0.136787
-0.228917
-0.189614
-0.305542
-0.331078
-0.409522
-0.477079
-0.40274
0.465316
6.15004
0
0
0
0
0
0
0
0
0
0
0
0
0
0
0
0
0
0
0
0
0
0
0
0
0
0
0
0
0
0
0
0
0
0
0
0
0
0
0
-0.0975217
-0.131678
-0.167929
-0.14455
-0.228903
-0.286129
-0.325402
-0.3826
-0.30528
21.0694
0
0
0
0
0
0
0
0
0
0
0
0
0
0
0
0
0
0
0
0
0
0
0
0
0
0
0
0
0
0
0
0
0
0
0
0
0
0
0
0
-0.0828255
-0.0539976
-0.101672
-0.129681
-0.156942
-0.210226
-0.255318
-0.293797
-0.176842
21.2199
0
0
0
0
0
0
0
0
0
0
0
0
0
0
0
0
0
0
0
0
0
0
0
0
0
0
0
0
0
0
0
0
0
0
0
0
0
0
0
0
-0.0475216
-0.0219944
-0.0682788
-0.0845597
-0.109219
-0.140753
-0.170227
-0.200118
-0.0687303
20.9475
0
0
0
0
0
0
0
0
0
0
0
0
0
0
0
0
0
0
0
0
0
0
0
0
0
0
0
0
0
0
0
0
0
0
0
0
0
0
0
0
0.00238023
-0.0360451
-0.0352264
0.425692
0.425151
0.423041
0.426853
0.428498
0.569046
19.6011
0
0
0
0
0
0
0
0
0
0
0
0
0
0
0
0
0
0
0
0
0
0
0
0
0
0
0
0
0
0
0
0
0
0
0
0
0
0
0
0
0.471523
0.425191
0.581397
1.70496
1.71523
1.82135
2.91928
2.92877
3.05673
15.9167
0
0
0
0
0
0
0
0
0
0
0
0
0
0
0
0
0
0
0
0
0
0
0
0
0
0
0
0
0
0
0
0
0
0
0
0
0
0
0
0
6.55202
6.55536
6.55982
5.31204
5.40986
6.30896
5.08555
5.09432
5.2091
10.3371
0
0
0
0
0
0
0
0
0
0
0
0
0
0
0
0
0
0
0
0
0
0
0
0
0
0
0
0
0
0
0
0
0
0
0
0
0
0
0
0
5.52783
5.53996
5.54196
5.54121
5.54439
4.52522
5.16545
5.22779
16.4546
0
0
0
0
0
0
0
0
0
0
0
0
0
0
0
0
0
0
0
0
0
0
0
0
0
0
0
0
0
0
0
0
0
0
0
0
0
0
0
0
0
3.60674
3.66202
3.98033
3.98143
3.98244
3.98396
3.23505
3.31189
11.5415
0
0
0
0
0
0
0
0
0
0
0
0
0
0
0
0
0
0
0
0
0
0
0
0
0
0
0
0
0
0
0
0
0
0
0
0
0
0
0
0
0
6.01719
6.36025
5.75447
5.75462
5.75506
5.75536
5.75588
5.76119
8.30564
0
0
0
0
0
0
0
0
0
0
0
0
0
0
0
0
0
0
0
0
0
0
0
0
0
0
0
0
0
0
0
0
0
0
0
0
0
0
0
0
0
3.29611
2.74112
2.74112
2.74112
2.74112
2.74112
2.74112
2.74112
2.74112
0
0
0
0
0
0
0
0
0
0
0
0
0
0
0
0
0
0
0
0
0
0
0
0
0
0
0
0
0
0
0
0
0
0
0
0
0
0
0
0
0
0
0
0
0
0
0
0
0
0
0
0
0
0
0
0
0
0
0
0
0
0
0
0
0
0
0
0
0
0
0
0
0
0
0
0
0
0
0
0
0
0
0
0
0
0
0
0
0
0
0
