# vtk DataFile Version 4.0
Nusif Fluid VTK output
ASCII
DATASET STRUCTURED_POINTS
DIMENSIONS 50 20 1
ORIGIN 0 0 0 
SPACING 0.2 0.2 1
POINT_DATA 1000 

VECTORS velocity double
0.0384037 -0.0431284  0
0.115824 -0.0430506  0
0.193538 -0.0430032  0
0.271189 -0.0427945  0
0.348513 -0.0424496  0
0.424815 -0.0420056  0
0.500361 -0.0415398  0
0.575487 -0.0414345  0
0.65089 -0.0418557  0
0.727485 -0.0426526  0
0.806027 -0.0437586  0
0.886605 -0.0446296  0
0.967708 -0.044265  0
1.04633 -0.0421139  0
1.12063 -0.0399296  0
1.19149 -0.0386352  0
1.26161 -0.0392  0
1.33423 -0.0411326  0
1.4108 -0.0431057  0
1.48895 -0.0427291  0
1.56066 -0.0366529  0
1.62399 -0.0343524  0
1.6842 -0.0335294  0
1.74318 -0.0331273  0
1.79987 -0.0312373  0
1.85438 -0.0309319  0
1.9065 -0.0288654  0
1.95609 -0.0283901  0
2.00419 -0.0273848  0
2.0519 -0.0279872  0
2.10085 -0.0286381  0
2.15024 -0.0284099  0
2.19852 -0.0275354  0
2.24382 -0.0253525  0
2.28481 -0.0233543  0
2.32165 -0.0211493  0
2.35532 -0.0201635  0
2.38882 -0.021049  0
2.4276 -0.0253606  0
2.47582 -0.0305237  0
2.52449 -0.025823  0
2.54707 -0.00442048  0
2.53685 0.0069746  0
2.51305 0.00916792  0
2.51132 -0.0112696  0
1.26129 -0.0047853  0
0 0  0
0 0  0
0 0  0
0 0  0
0.038596 -0.128983  0
0.116159 -0.12886  0
0.193882 -0.128527  0
0.271517 -0.128154  0
0.34855 -0.127069  0
0.424314 -0.12527  0
0.498776 -0.12377  0
0.572173 -0.12328  0
0.6456 -0.124415  0
0.720148 -0.126797  0
0.796982 -0.130472  0
0.876893 -0.133831  0
0.957718 -0.132419  0
1.03447 -0.124724  0
1.10538 -0.117922  0
1.17233 -0.113817  0
1.23838 -0.115531  0
1.30697 -0.121364  0
1.38095 -0.128771  0
1.46015 -0.129741  0
1.53103 -0.107576  0
1.59088 -0.101928  0
1.6502 -0.100823  0
1.71008 -0.100035  0
1.76861 -0.0948815  0
1.82477 -0.0932776  0
1.87833 -0.0875398  0
1.92955 -0.0858595  0
1.97909 -0.0828863  0
2.02767 -0.0841066  0
2.07632 -0.085457  0
2.12475 -0.0847267  0
2.17213 -0.0821916  0
2.21709 -0.0762387  0
2.25877 -0.0705191  0
2.29685 -0.0642463  0
2.33178 -0.0609707  0
2.36522 -0.0625277  0
2.40029 -0.0730688  0
2.44144 -0.0874983  0
2.48767 -0.0790925  0
2.5143 -0.0118516  0
2.51646 0.0148005  0
2.51261 0.021331  0
2.50962 -0.0225393  0
1.25481 -0.0160549  0
0 0  0
0 0  0
0 0  0
0 0  0
0.0387282 -0.214351  0
0.116406 -0.214456  0
0.193759 -0.213091  0
0.270587 -0.213065  0
0.346958 -0.210938  0
0.421183 -0.206573  0
0.493109 -0.203959  0
0.563283 -0.202087  0
0.633057 -0.204086  0
0.70383 -0.207661  0
0.777504 -0.215399  0
0.856953 -0.223517  0
0.935749 -0.217608  0
1.00807 -0.203885  0
1.07479 -0.191663  0
1.1379 -0.18545  0
1.20037 -0.187707  0
1.26412 -0.196816  0
1.33259 -0.211109  0
1.40854 -0.217847  0
1.47795 -0.171265  0
1.5448 -0.172588  0
1.6037 -0.156043  0
1.6711 -0.179766  0
1.72745 -0.137691  0
1.78778 -0.174617  0
1.84572 -0.125363  0
1.89528 -0.156485  0
1.95333 -0.127508  0
1.99764 -0.140043  0
2.0511 -0.139287  0
2.09459 -0.130475  0
2.14034 -0.137225  0
2.18426 -0.117784  0
2.22465 -0.118711  0
2.26562 -0.102782  0
2.30203 -0.101433  0
2.33747 -0.0985766  0
2.36725 -0.109581  0
2.39058 -0.123111  0
2.39974 -0.106539  0
2.44327 -0.0607005  0
2.49686 0.00782586  0
2.53171 0.0121631  0
2.53305 -0.0112696  0
1.25481 -0.0112696  0
0 0  0
0 0  0
0 0  0
0 0  0
0.0386529 -0.299464  0
0.115781 -0.299573  0
0.191671 -0.296275  0
0.266402 -0.296608  0
0.340134 -0.292741  0
0.411767 -0.285756  0
0.480671 -0.280901  0
0.547708 -0.277613  0
0.613762 -0.279626  0
0.680128 -0.284468  0
0.749166 -0.296577  0
0.824274 -0.31218  0
0.894477 -0.28938  0
0.960996 -0.278598  0
1.03546 -0.265756  0
1.10065 -0.247318  0
1.16544 -0.260753  0
1.2271 -0.256835  0
1.27701 -0.277133  0
1.30326 -0.261669  0
1.40998 -0.231176  0
1.53321 -0.105013  0
1.61154 -0.0887489  0
1.6564 -0.112858  0
1.72687 -0.074047  0
1.78042 -0.112272  0
1.83247 -0.0666882  0
1.9006 -0.0990153  0
1.93824 -0.0720062  0
2.0081 -0.0839236  0
2.04133 -0.0824685  0
2.09469 -0.0741578  0
2.13308 -0.0825685  0
2.17324 -0.0668973  0
2.21744 -0.0715459  0
2.2547 -0.0596851  0
2.29944 -0.060626  0
2.33872 -0.0570978  0
2.37629 -0.061873  0
2.38198 -0.0661366  0
2.38687 -0.0532694  0
1.19987 -0.0532694  0
0 0  0
0 0  0
0 0  0
0 0  0
0 0  0
0 0  0
0 0  0
0 0  0
0.0375766 -0.379512  0
0.112482 -0.379182  0
0.187658 -0.375263  0
0.256337 -0.368637  0
0.32966 -0.375338  0
0.394943 -0.347685  0
0.464995 -0.365604  0
0.530994 -0.333481  0
0.596124 -0.362592  0
0.660694 -0.340082  0
0.70984 -0.366751  0
0.740809 -0.355729  0
0.830276 -0.33779  0
0.953155 -0.157323  0
1.01518 -0.152085  0
1.09795 -0.13705  0
1.16864 -0.149377  0
1.22942 -0.14025  0
1.2676 -0.151689  0
1.2824 -0.130834  0
0.65163 -0.130834  0
0 0  0
0 0  0
0 0  0
0 0  0
0 0  0
0 0  0
0 0  0
0 0  0
0 0  0
0 0  0
0 0  0
0 0  0
0 0  0
0 0  0
0 0  0
0 0  0
0 0  0
0 0  0
0 0  0
0 0  0
0 0  0
0 0  0
0 0  0
0 0  0
0 0  0
0 0  0
0 0  0
0 0  0
0 0  0
0.0372877 -0.208544  0
0.110493 -0.208255  0
0.179137 -0.206555  0
0.258697 -0.199734  0
0.315164 -0.208915  0
0.392461 -0.185238  0
0.455867 -0.206433  0
0.529054 -0.176109  0
0.599144 -0.204493  0
0.655061 -0.17913  0
0.708575 -0.19886  0
0.719813 -0.177864  0
0.370404 -0.177864  0
0 0  0
0 0  0
0 0  0
0 0  0
0 0  0
0 0  0
0 0  0
0 0  0
0 0  0
0 0  0
0 0  0
0 0  0
0 0  0
0 0  0
0 0  0
0 0  0
0 0  0
0 0  0
0 0  0
0 0  0
0 0  0
0 0  0
0 0  0
0 0  0
0 0  0
0 0  0
0 0  0
0 0  0
0 0  0
0 0  0
0 0  0
0 0  0
0 0  0
0 0  0
0 0  0
0 0  0
0 0  0
0 0  0
0 0  0
0 0  0
0 0  0
0 0  0
0 0  0
0 0  0
0 0  0
0 0  0
0 0  0
0 0  0
0 0  0
0 0  0
0 0  0
0 0  0
0 0  0
0 0  0
0 0  0
0 0  0
0 0  0
0 0  0
0 0  0
0 0  0
0 0  0
0 0  0
0 0  0
0 0  0
0 0  0
0 0  0
0 0  0
0 0  0
0 0  0
0 0  0
0 0  0
0 0  0
0 0  0
0 0  0
0 0  0
0 0  0
0 0  0
0 0  0
0 0  0
0 0  0
0 0  0
0 0  0
0 0  0
0 0  0
0 0  0
0 0  0
0 0  0
0 0  0
0 0  0
0 0  0
0 0  0
0 0  0
0 0  0
0 0  0
0 0  0
0 0  0
0 0  0
0 0  0
0 0  0
0 0  0
0 0  0
0 0  0
0 0  0
0 0  0
0 0  0
0 0  0
0 0  0
0 0  0
0 0  0
0 0  0
0 0  0
0 0  0
0 0  0
0 0  0
0 0  0
0 0  0
0 0  0
0 0  0
0 0  0
0 0  0
0 0  0
0 0  0
0 0  0
0 0  0
0 0  0
0 0  0
0 0  0
0 0  0
0 0  0
0 0  0
0 0  0
0 0  0
0 0  0
0 0  0
0 0  0
0 0  0
0 0  0
0 0  0
0 0  0
0 0  0
0 0  0
0 0  0
0 0  0
0 0  0
0 0  0
0 0  0
0 0  0
0 0  0
0 0  0
0 0  0
0 0  0
0 0  0
0 0  0
0 0  0
0 0  0
0 0  0
0 0  0
0 0  0
0 0  0
0 0  0
0 0  0
0 0  0
0 0  0
0 0  0
0 0  0
0 0  0
0 0  0
0 0  0
0 0  0
0 0  0
0 0  0
0 0  0
0 0  0
0 0  0
0 0  0
0 0  0
0 0  0
0 0  0
0 0  0
0 0  0
0 0  0
0 0  0
0 0  0
0 0  0
0 0  0
0 0  0
0 0  0
0 0  0
0 0  0
0 0  0
0 0  0
0 0  0
0 0  0
0 0  0
0 0  0
0 0  0
0 0  0
0 0  0
0 0  0
0 0  0
0 0  0
0 0  0
0 0  0
0 0  0
0 0  0
0 0  0
0 0  0
0 0  0
0 0  0
0 0  0
0 0  0
0 0  0
0 0  0
0 0  0
0 0  0
0 0  0
0 0  0
0 0  0
0 0  0
0 0  0
0 0  0
0 0  0
0 0  0
0 0  0
0 0  0
0 0  0
0 0  0
0 0  0
0 0  0
0 0  0
0 0  0
0 0  0
0 0  0
0 0  0
0 0  0
0 0  0
0 0  0
0 0  0
0 0  0
0 0  0
0 0  0
0 0  0
0 0  0
0 0  0
0 0  0
0 0  0
0 0  0
0 0  0
0 0  0
0 0  0
0 0  0
0 0  0
0 0  0
0 0  0
0 0  0
0 0  0
0 0  0
0 0  0
0 0  0
0 0  0
0 0  0
0 0  0
0 0  0
0 0  0
0 0  0
0 0  0
0 0  0
0 0  0
0 0  0
0 0  0
0 0  0
0 0  0
0 0  0
0 0  0
0 0  0
0 0  0
0 0  0
0 0  0
0 0  0
0 0  0
0 0  0
0 0  0
0 0  0
0 0  0
0 0  0
0 0  0
0 0  0
0 0  0
0 0  0
0 0  0
0 0  0
0 0  0
0 0  0
0 0  0
0 0  0
0 0  0
0 0  0
0 0  0
0 0  0
0 0  0
0 0  0
0 0  0
0 0  0
0 0  0
0 0  0
0 0  0
0 0  0
0 0  0
0 0  0
0 0  0
0 0  0
0 0  0
0 0  0
0 0  0
0 0  0
0 0  0
0 0  0
0 0  0
0 0  0
0 0  0
0 0  0
0 0  0
0 0  0
0 0  0
0 0  0
0 0  0
0 0  0
0 0  0
0 0  0
0 0  0
0 0  0
0 0  0
0 0  0
0 0  0
0 0  0
0 0  0
0 0  0
0 0  0
0 0  0
0 0  0
0 0  0
0 0  0
0 0  0
0 0  0
0 0  0
0 0  0
0 0  0
0 0  0
0 0  0
0 0  0
0 0  0
0 0  0
0 0  0
0 0  0
0 0  0
0 0  0
0 0  0
0 0  0
0 0  0
0 0  0
0 0  0
0 0  0
0 0  0
0 0  0
0 0  0
0 0  0
0 0  0
0 0  0
0 0  0
0 0  0
0 0  0
0 0  0
0 0  0
0 0  0
0 0  0
0 0  0
0 0  0
0 0  0
0 0  0
0 0  0
0 0  0
0 0  0
0 0  0
0 0  0
0 0  0
0 0  0
0 0  0
0 0  0
0 0  0
0 0  0
0 0  0
0 0  0
0 0  0
0 0  0
0 0  0
0 0  0
0 0  0
0 0  0
0 0  0
0 0  0
0 0  0
0 0  0
0 0  0
0 0  0
0 0  0
0 0  0
0 0  0
0 0  0
0 0  0
0 0  0
0 0  0
0 0  0
0 0  0
0 0  0
0 0  0
0 0  0
0 0  0
0 0  0
0 0  0
0 0  0
0 0  0
0 0  0
0 0  0
0 0  0
0 0  0
0 0  0
0 0  0
0 0  0
0 0  0
0 0  0
0 0  0
0 0  0
0 0  0
0 0  0
0 0  0
0 0  0
0 0  0
0 0  0
0 0  0
0 0  0
0 0  0
0 0  0
0 0  0
0 0  0
0 0  0
0 0  0
0 0  0
0 0  0
0 0  0
0 0  0
0 0  0
0 0  0
0 0  0
0 0  0
0 0  0
0 0  0
0 0  0
0 0  0
0 0  0
0 0  0
0 0  0
0 0  0
0 0  0
0 0  0
0 0  0
0 0  0
0 0  0
0 0  0
0 0  0
0 0  0
0 0  0
0 0  0
0 0  0
0 0  0
0 0  0
0 0  0
0 0  0
0 0  0
0 0  0
0 0  0
0 0  0
0 0  0
0 0  0
0 0  0
0 0  0
0 0  0
0 0  0
0 0  0
0 0  0
0 0  0
0 0  0
0 0  0
0 0  0
0 0  0
0 0  0
0 0  0
0 0  0
0 0  0
0 0  0
0 0  0
0 0  0
0 0  0
0 0  0
0 0  0
0 0  0
0 0  0
0 0  0
0 0  0
0 0  0
0 0  0
0 0  0
0 0  0
0 0  0
0 0  0
0 0  0
0 0  0
0 0  0
0 0  0
0 0  0
0 0  0
0 0  0
0 0  0
0 0  0
0 0  0
0 0  0
0 0  0
0 0  0
0 0  0
0 0  0
0 0  0
0 0  0
0 0  0
0 0  0
0 0  0
0 0  0
0 0  0
0 0  0
0 0  0
0 0  0
0 0  0
0 0  0
0 0  0
0 0  0
0 0  0
0 0  0
0 0  0
0 0  0
0 0  0
0 0  0
0 0  0
0 0  0
0 0  0
0 0  0
0 0  0
0 0  0
0 0  0
0 0  0
0 0  0
0 0  0
0 0  0
0 0  0
0 0  0
0 0  0
0 0  0
0 0  0
0 0  0
0 0  0
0 0  0
0 0  0
0 0  0
0 0  0
0 0  0
0 0  0
0 0  0
0 0  0
0 0  0
0 0  0
0 0  0
0 0  0
0 0  0
0 0  0
0 0  0
0 0  0
0 0  0
0 0  0
0 0  0
0 0  0
0 0  0
0 0  0
0 0  0
0 0  0
0 0  0
0 0  0
0 0  0
0 0  0
0 0  0
0 0  0
0 0  0
0 0  0
0 0  0
0 0  0
0 0  0
0 0  0
0 0  0
0 0  0
0 0  0
0 0  0
0 0  0
0 0  0
0 0  0
0 0  0
0 0  0
0 0  0
0 0  0
0 0  0
0 0  0
0 0  0
0 0  0
0 0  0
0 0  0
0 0  0
0 0  0
0 0  0
0 0  0
0 0  0
0 0  0
0 0  0
0 0  0
0 0  0
0 0  0
0 0  0
0 0  0
0 0  0
0 0  0
0 0  0
0 0  0
0 0  0
0 0  0
0 0  0
0 0  0
0 0  0
0 0  0
0 0  0
0 0  0
0 0  0
0 0  0
0 0  0
0 0  0
0 0  0
0 0  0
0 0  0
0 0  0
0 0  0
0 0  0
0 0  0
0 0  0
0 0  0
0 0  0
0 0  0
0 0  0
0 0  0
0 0  0
0 0  0
0 0  0
0 0  0
0 0  0
0 0  0
0 0  0
0 0  0
0 0  0
0 0  0
0 0  0
0 0  0
0 0  0
0 0  0
0 0  0
0 0  0
0 0  0
0 0  0
0 0  0
0 0  0
0 0  0
0 0  0
0 0  0
0 0  0
0 0  0
0 0  0
0 0  0
0 0  0
0 0  0
0 0  0
0 0  0
0 0  0
0 0  0
0 0  0
0 0  0
0 0  0
0 0  0
0 0  0
0 0  0
0 0  0
0 0  0
0 0  0
0 0  0
0 0  0
0 0  0
0 0  0
0 0  0
0 0  0
0 0  0
0 0  0
0 0  0
0 0  0
0 0  0
0 0  0
0 0  0
0 0  0
0 0  0
0 0  0
0 0  0
0 0  0
0 0  0
0 0  0
0 0  0
0 0  0
0 0  0
0 0  0
0 0  0
0 0  0
0 0  0
0 0  0
0 0  0
0 0  0
0 0  0
0 0  0
0 0  0
0 0  0

SCALARS pressure double 1
LOOKUP_TABLE default
0.728422
0.735598
0.738987
0.742181
0.7408
0.737947
0.733068
0.725085
0.713629
0.697693
0.676364
0.648935
0.61806
0.590299
0.567293
0.548071
0.530219
0.509587
0.481706
0.443158
0.399288
0.370672
0.353107
0.345487
0.338319
0.338749
0.33548
0.337368
0.336948
0.33852
0.340064
0.340117
0.340956
0.340415
0.339909
0.339623
0.33862
0.335676
0.327361
0.306373
0.266213
0.210079
0.176289
0.124882
0
0
0
0
0
0
0.53161
0.536816
0.540147
0.541731
0.540322
0.537835
0.532879
0.524933
0.514697
0.49891
0.476907
0.445616
0.408062
0.379804
0.359905
0.343253
0.329802
0.311878
0.286286
0.242915
0.181737
0.158716
0.142446
0.14534
0.131524
0.144153
0.132496
0.142469
0.137764
0.141099
0.143806
0.141621
0.145917
0.143292
0.146093
0.145329
0.146858
0.146166
0.14298
0.128538
0.089366
-0.000520646
0.00372252
0
0.0155558
0
0
0
0
0
0.331681
0.335011
0.337779
0.338067
0.338441
0.334825
0.332291
0.324752
0.318084
0.302824
0.28186
0.242733
0.182272
0.157891
0.147765
0.134645
0.132058
0.119645
0.104515
0.056819
-0.06931
-0.0549971
-0.0836921
-0.0319677
-0.0981625
-0.0187426
-0.0870138
-0.0298853
-0.062758
-0.0484386
-0.0401648
-0.0557811
-0.0340964
-0.0502067
-0.0344094
-0.0415324
-0.0333613
-0.0313884
-0.0213047
-0.0148971
-0.0273941
0
0
0
0
0
0
0
0
0
0.126578
0.129866
0.131042
0.13083
0.135609
0.126911
0.134397
0.122146
0.126934
0.110125
0.101431
0.0553836
-0.0801689
-0.0740915
-0.0565795
-0.079637
-0.0513037
-0.066457
-0.0417485
-0.0478342
0
0
0
0
0
0
0
0
0
0
0
0
0
0
0
0
0
0
0
0
0
0
0
0
0
0
0
0
0
0
-0.0793686
-0.0719141
-0.0738604
-0.0792035
-0.0518231
-0.0943719
-0.0392316
-0.0953311
-0.0365665
-0.0882988
-0.0371707
-0.0401472
0
0
0
0
0
0
0
0
0
0
0
0
0
0
0
0
0
0
0
0
0
0
0
0
0
0
0
0
0
0
0
0
0
0
0
0
0
0
0
0
0
0
0
0
0
0
0
0
0
0
0
0
0
0
0
0
0
0
0
0
0
0
0
0
0
0
0
0
0
0
0
0
0
0
0
0
0
0
0
0
0
0
0
0
0
0
0
0
0
0
0
0
0
0
0
0
0
0
0
0
0
0
0
0
0
0
0
0
0
0
0
0
0
0
0
0
0
0
0
0
0
0
0
0
0
0
0
0
0
0
0
0
0
0
0
0
0
0
0
0
0
0
0
0
0
0
0
0
0
0
0
0
0
0
0
0
0
0
0
0
0
0
0
0
0
0
0
0
0
0
0
0
0
0
0
0
0
0
0
0
0
0
0
0
0
0
0
0
0
0
0
0
0
0
0
0
0
0
0
0
0
0
0
0
0
0
0
0
0
0
0
0
0
0
0
0
0
0
0
0
0
0
0
0
0
0
0
0
0
0
0
0
0
0
0
0
0
0
0
0
0
0
0
0
0
0
0
0
0
0
0
0
0
0
0
0
0
0
0
0
0
0
0
0
0
0
0
0
0
0
0
0
0
0
0
0
0
0
0
0
0
0
0
0
0
0
0
0
0
0
0
0
0
0
0
0
0
0
0
0
0
0
0
0
0
0
0
0
0
0
0
0
0
0
0
0
0
0
0
0
0
0
0
0
0
0
0
0
0
0
0
0
0
0
0
0
0
0
0
0
0
0
0
0
0
0
0
0
0
0
0
0
0
0
0
0
0
0
0
0
0
0
0
0
0
0
0
0
0
0
0
0
0
0
0
0
0
0
0
0
0
0
0
0
0
0
0
0
0
0
0
0
0
0
0
0
0
0
0
0
0
0
0
0
0
0
0
0
0
0
0
0
0
0
0
0
0
0
0
0
0
0
0
0
0
0
0
0
0
0
0
0
0
0
0
0
0
0
0
0
0
0
0
0
0
0
0
0
0
0
0
0
0
0
0
0
0
0
0
0
0
0
0
0
0
0
0
0
0
0
0
0
0
0
0
0
0
0
0
0
0
0
0
0
0
0
0
0
0
0
0
0
0
0
0
0
0
0
0
0
0
0
0
0
0
0
0
0
0
0
0
0
0
0
0
0
0
0
0
0
0
0
0
0
0
0
0
0
0
0
0
0
0
0
0
0
0
0
0
0
0
0
0
0
0
0
0
0
0
0
0
0
0
0
0
0
0
0
0
0
0
0
0
0
0
0
0
0
0
0
0
0
0
0
0
0
0
0
0
0
0
0
0
0
0
0
0
0
0
0
0
0
0
0
0
0
0
0
0
0
0
0
0
0
0
0
0
0
0
0
0
0
0
0
0
0
0
0
0
0
0
0
0
0
0
0
0
0
0
0
0
0
0
0
0
0
0
0
0
0
0
0
0
0
0
0
0
0
0
0
0
0
0
0
0
0
0
0
0
0
0
0
0
0
0
0
0
0
0
0
0
0
0
0
0
0
0
0
0
0
0
0
0
0
0
0
0
0
0
0
0
0
0
0
0
0
0
0
0
0
0
0
0
0
0
0
0
0
0
0
0
0
0
0
0
0
0
0
0
0
0
0
0
0
0
0
0
0
0
0
0
0
0
0
0
0
0
0
0
0
0
0
0
0
0
0
0
0
0
0
0
0
0
0
0
0
0
0
0
0
0
0
0
0
0
0
0
0
0
0
0
0
0
0
0
0
0
0
0
0
0
0
0
0
0
0
0
0
SCALARS rhs double 1
LOOKUP_TABLE default
-4.96398
-5.1147
-5.09386
-5.12806
-5.11021
-5.1139
-5.10558
-5.11339
-5.11807
-5.13379
-5.16058
-5.18376
-5.18905
-5.14971
-5.10283
-5.08524
-5.09208
-5.12297
-5.15476
-5.14171
-5.05662
-5.02641
-5.01612
-4.99508
-4.9797
-4.95819
-4.94647
-4.93047
-4.93072
-4.93632
-4.94419
-4.94271
-4.90909
-4.91002
-4.86963
-4.84648
-4.86414
-4.86278
-4.92598
-4.92684
-4.82046
-4.70634
-4.75465
-4.95888
1.6969
0
0
0
0
0
-0.0221733
-0.112337
-0.11463
-0.118936
-0.107459
-0.0886307
-0.0854809
-0.067145
-0.077308
-0.0869298
-0.110285
-0.144951
-0.155916
-0.0744974
-0.034915
-0.0166874
-0.0330879
-0.0622944
-0.0975082
-0.0926945
0.116989
0.12845
0.0884789
0.157464
0.0863002
0.18725
0.127024
0.197175
0.167786
0.181652
0.184906
0.190308
0.206055
0.21585
0.253802
0.229559
0.249334
0.226936
0.221225
0.243657
0.234112
1.93754
1.53799
1.99759
0.958121
0
0
0
0
0
-0.0664371
-0.111308
-0.123608
-0.108786
-0.103993
-0.0785542
-0.0633402
-0.0476129
-0.0503586
-0.0608267
-0.0868931
-0.139635
-0.00806786
0.10202
0.13487
0.10945
0.124529
0.0814399
0.0771635
0.0750837
1.33111
1.37404
0.771541
0.673998
1.38399
4.69542
4.71704
4.55976
12.7241
12.9096
11.8661
10.4653
8.53692
6.45796
6.80763
7.88976
7.87534
5.89121
1.93754
1.90781
1.6969
0
0
0
0
0
0
0
0
0
0.0647288
0.0383611
0.0378903
0.0427051
0.0838079
0.048338
0.132664
0.0669811
0.142362
0.0740641
0.112884
0.0615281
1.25033
0.909257
6.01385
8.19492
9.90708
12.7684
33.576
27.1922
21.0289
16.247
13.5584
10.8402
10.7865
8.4957
6.05141
2.40646
0
0
0
0
0
0
0
0
0
0
0
0
0
0
0
0
0
0
0
0
0
0
1.83328
1.80585
1.9197
1.87829
1.27627
0.813188
0.853745
1.5868
3.01983
7.34375
7.60019
7.37421
9.26158
8.97228
43.8307
32.8547
19.5017
9.00999
0
0
0
0
0
0
0
0
0
0
0
0
0
0
0
0
0
0
0
0
0
0
0
0
0
0
0
0
0
0
0
0
6.36602
6.31525
5.9657
5.40632
4.81609
4.65051
4.54086
5.49725
6.68708
4.04255
4.68643
4.81997
12.4974
35.3186
0
0
0
0
0
0
0
0
0
0
0
0
0
0
0
0
0
0
0
0
0
0
0
0
0
0
0
0
0
0
0
0
0
0
0
0
1.47614
1.54411
2.09799
2.47435
3.77929
5.12603
6.33856
5.10183
2.09579
1.47098
2.53607
14.3387
26.3021
0
0
0
0
0
0
0
0
0
0
0
0
0
0
0
0
0
0
0
0
0
0
0
0
0
0
0
0
0
0
0
0
0
0
0
0
0
2.59543
2.54951
1.62039
1.22694
0.49828
0.777197
0.916648
3.70181
7.89906
8.9678
11.6117
27.2717
0
0
0
0
0
0
0
0
0
0
0
0
0
0
0
0
0
0
0
0
0
0
0
0
0
0
0
0
0
0
0
0
0
0
0
0
0
0
2.45787
2.59584
4.01582
4.53242
6.43299
7.47839
9.23983
7.89527
5.98596
8.49533
41.2731
0
0
0
0
0
0
0
0
0
0
0
0
0
0
0
0
0
0
0
0
0
0
0
0
0
0
0
0
0
0
0
0
0
0
0
0
0
0
0
9.36633
9.33066
8.04142
9.25902
7.69325
7.78758
9.09454
10.208
11.1703
21.7759
3.2041
0
0
0
0
0
0
0
0
0
0
0
0
0
0
0
0
0
0
0
0
0
0
0
0
0
0
0
0
0
0
0
0
0
0
0
0
0
0
0
7.92952
10.0992
10.1145
8.86149
11.2589
12.4355
10.8064
8.57914
8.60392
43.2779
0
0
0
0
0
0
0
0
0
0
0
0
0
0
0
0
0
0
0
0
0
0
0
0
0
0
0
0
0
0
0
0
0
0
0
0
0
0
0
0
13.2058
10.8439
11.0393
13.0106
10.7272
10.2862
9.48307
9.57063
8.67562
33.2233
0
0
0
0
0
0
0
0
0
0
0
0
0
0
0
0
0
0
0
0
0
0
0
0
0
0
0
0
0
0
0
0
0
0
0
0
0
0
0
0
8.71388
9.82855
9.83715
7.65861
8.9401
7.02241
6.34758
6.44313
5.90605
26.1906
0
0
0
0
0
0
0
0
0
0
0
0
0
0
0
0
0
0
0
0
0
0
0
0
0
0
0
0
0
0
0
0
0
0
0
0
0
0
0
0
7.061
5.55892
5.71513
6.83869
5.56628
5.6724
5.42452
5.43401
4.26976
17.1298
0
0
0
0
0
0
0
0
0
0
0
0
0
0
0
0
0
0
0
0
0
0
0
0
0
0
0
0
0
0
0
0
0
0
0
0
0
0
0
0
6.55202
6.55536
6.55982
5.31204
5.40986
6.30896
5.08555
5.09432
5.2091
10.3371
0
0
0
0
0
0
0
0
0
0
0
0
0
0
0
0
0
0
0
0
0
0
0
0
0
0
0
0
0
0
0
0
0
0
0
0
0
0
0
0
5.52783
5.53996
5.54196
5.54121
5.54439
4.52522
5.16545
5.22779
16.4546
0
0
0
0
0
0
0
0
0
0
0
0
0
0
0
0
0
0
0
0
0
0
0
0
0
0
0
0
0
0
0
0
0
0
0
0
0
0
0
0
0
3.60674
3.66202
3.98033
3.98143
3.98244
3.98396
3.23505
3.31189
11.5415
0
0
0
0
0
0
0
0
0
0
0
0
0
0
0
0
0
0
0
0
0
0
0
0
0
0
0
0
0
0
0
0
0
0
0
0
0
0
0
0
0
6.01719
6.36025
5.75447
5.75462
5.75506
5.75536
5.75588
5.76119
8.30564
0
0
0
0
0
0
0
0
0
0
0
0
0
0
0
0
0
0
0
0
0
0
0
0
0
0
0
0
0
0
0
0
0
0
0
0
0
0
0
0
0
3.29611
2.74112
2.74112
2.74112
2.74112
2.74112
2.74112
2.74112
2.74112
0
0
0
0
0
0
0
0
0
0
0
0
0
0
0
0
0
0
0
0
0
0
0
0
0
0
0
0
0
0
0
0
0
0
0
0
0
0
0
0
0
0
0
0
0
0
0
0
0
0
0
0
0
0
0
0
0
0
0
0
0
0
0
0
0
0
0
0
0
0
0
0
0
0
0
0
0
0
0
0
0
0
0
0
0
0
0
0
0
0
0
