# vtk DataFile Version 4.0
Nusif Fluid VTK output
ASCII
DATASET STRUCTURED_POINTS
DIMENSIONS 50 20 1
ORIGIN 0 0 0 
SPACING 0.2 0.2 1
POINT_DATA 1000 

VECTORS velocity double
0.0226499 -0.025685  0
0.0814486 -0.0386246  0
0.151769 -0.0365991  0
0.218803 -0.0352539  0
0.28277 -0.0334445  0
0.344098 -0.0325634  0
0.404179 -0.0321764  0
0.463853 -0.0321214  0
0.523581 -0.0322258  0
0.583588 -0.0323925  0
0.643996 -0.0326198  0
0.705033 -0.0330211  0
0.767274 -0.0338157  0
0.831451 -0.0349715  0
0.897934 -0.0360988  0
0.964921 -0.0354947  0
1.02859 -0.0327671  0
1.0862 -0.0294462  0
1.13898 -0.0279288  0
1.1895 -0.0271982  0
1.23822 -0.0261131  0
1.28547 -0.025745  0
1.33095 -0.0243326  0
1.37615 -0.0254571  0
1.42073 -0.0237313  0
1.46587 -0.0259978  0
1.51011 -0.0228522  0
1.55487 -0.0264952  0
1.59865 -0.0218921  0
1.64368 -0.0277338  0
1.68844 -0.0216322  0
1.73499 -0.0295145  0
1.78154 -0.0216321  0
1.82866 -0.0300839  0
1.87509 -0.0209394  0
1.91941 -0.0279935  0
1.96257 -0.0197577  0
2.00178 -0.0240599  0
2.04112 -0.0198761  0
2.07734 -0.020947  0
2.11595 -0.0222631  0
2.15325 -0.0196337  0
2.19276 -0.0244724  0
2.23142 -0.0187922  0
2.27048 -0.0248688  0
2.31049 -0.0197411  0
2.35332 -0.0276834  0
2.40669 -0.0302881  0
2.4683 -0.0359278  0
2.50193 -0.0147516  0
0.0363068 -0.0900975  0
0.101593 -0.108432  0
0.161514 -0.106395  0
0.22251 -0.102775  0
0.282414 -0.0990531  0
0.341848 -0.0969558  0
0.400798 -0.0960284  0
0.459491 -0.0958625  0
0.518243 -0.0961553  0
0.577174 -0.0966074  0
0.636378 -0.0972189  0
0.69611 -0.0983925  0
0.757003 -0.100775  0
0.820289 -0.104676  0
0.887674 -0.109465  0
0.954909 -0.105548  0
1.01663 -0.0973007  0
1.07193 -0.0870233  0
1.12268 -0.0830773  0
1.17239 -0.0814817  0
1.22153 -0.0788829  0
1.27005 -0.0779531  0
1.31731 -0.07406  0
1.36418 -0.0769983  0
1.41031 -0.0720972  0
1.45659 -0.0782541  0
1.50203 -0.0694749  0
1.54775 -0.0795476  0
1.59265 -0.0667223  0
1.6381 -0.0825867  0
1.68332 -0.0659641  0
1.72934 -0.0869462  0
1.77544 -0.0660454  0
1.82174 -0.088291  0
1.86743 -0.0640476  0
1.91181 -0.0827981  0
1.95477 -0.0602694  0
1.99486 -0.0720479  0
2.03441 -0.0599796  0
2.07109 -0.062938  0
2.10956 -0.066553  0
2.14687 -0.0591549  0
2.18599 -0.0727721  0
2.22445 -0.0568194  0
2.26306 -0.073712  0
2.30179 -0.058837  0
2.3412 -0.0800222  0
2.38743 -0.0867563  0
2.44454 -0.107385  0
2.47777 -0.0295032  0
0.0344493 -0.165575  0
0.0997084 -0.172657  0
0.160186 -0.171493  0
0.219397 -0.166867  0
0.278329 -0.162866  0
0.336839 -0.160206  0
0.394872 -0.158887  0
0.452535 -0.15854  0
0.50999 -0.158861  0
0.567384 -0.159409  0
0.624796 -0.160226  0
0.68238 -0.161897  0
0.740588 -0.165573  0
0.800941 -0.172706  0
0.867836 -0.184924  0
0.926676 -0.163061  0
0.986468 -0.165904  0
1.04498 -0.136827  0
1.09472 -0.138367  0
1.15162 -0.137392  0
1.19662 -0.121719  0
1.25594 -0.147555  0
1.29681 -0.0971847  0
1.35807 -0.166619  0
1.39316 -0.0682808  0
1.45771 -0.197515  0
1.48668 -0.0292091  0
1.55574 -0.239204  0
1.57906 0.0201194  0
1.65051 -0.290931  0
1.67155 0.0715186  0
1.73667 -0.340169  0
1.76472 0.108434  0
1.81125 -0.360204  0
1.85946 0.109354  0
1.8795 -0.325214  0
1.95585 0.0582262  0
1.95218 -0.231549  0
2.04921 -0.0416707  0
2.03462 -0.107921  0
2.12979 -0.159811  0
2.1228 -0.000828468  0
2.19368 -0.245695  0
2.21134 0.0553852  0
2.24989 -0.267673  0
2.29814 0.0435437  0
2.30844 -0.236713  0
2.37737 -0.0498282  0
2.31426 -0.142915  0
2.36405 -0.0862089  0
0.0299351 -0.23226  0
0.0866303 -0.23246  0
0.142706 -0.232711  0
0.202107 -0.228777  0
0.263546 -0.225869  0
0.324944 -0.22167  0
0.384992 -0.220074  0
0.443896 -0.218495  0
0.501576 -0.218646  0
0.558481 -0.21851  0
0.615086 -0.219735  0
0.670757 -0.220241  0
0.72553 -0.22481  0
0.772064 -0.224955  0
0.791015 -0.223114  0
0.878685 -0.204565  0
0.97271 -0.101371  0
1.02683 -0.0792502  0
1.09858 -0.0832185  0
1.13735 -0.0831089  0
1.20886 -0.0689489  0
1.23445 -0.0953473  0
1.31654 -0.0474574  0
1.33053 -0.115078  0
1.42334 -0.0199149  0
1.42038 -0.145258  0
1.52757 0.0174135  0
1.5082 -0.186152  0
1.62899 0.0649495  0
1.59961 -0.236078  0
1.71821 0.11585  0
1.69968 -0.282737  0
1.78398 0.152848  0
1.81163 -0.301997  0
1.82788 0.152462  0
1.93322 -0.270409  0
1.86901 0.098738  0
2.05248 -0.183561  0
1.93158 -0.00156715  0
2.14857 -0.0659297  0
2.02516 -0.115521  0
2.20468 0.0386927  0
2.13897 -0.197395  0
2.23278 0.0934124  0
2.26066 -0.21883  0
2.26368 0.0826396  0
2.38444 -0.184375  0
2.26445 0.00664009  0
2.39236 -0.0714573  0
2.36405 -0.0714573  0
0.0284476 -0.131097  0
0.0865461 -0.12961  0
0.142527 -0.131013  0
0.199706 -0.129431  0
0.259972 -0.128612  0
0.321372 -0.125857  0
0.382832 -0.12504  0
0.44257 -0.123697  0
0.501196 -0.123714  0
0.558875 -0.123316  0
0.615485 -0.124108  0
0.672846 -0.123716  0
0.723768 -0.126197  0
0.757425 -0.121953  0
0.780619 -0.111557  0
0.395508 -0.111557  0
0 0  0
0 0  0
0 0  0
0 0  0
0 0  0
0 0  0
0 0  0
0 0  0
0 0  0
0 0  0
0 0  0
0 0  0
0 0  0
0 0  0
0 0  0
0 0  0
0 0  0
0 0  0
0 0  0
0 0  0
0 0  0
0 0  0
0 0  0
0 0  0
0 0  0
0 0  0
0 0  0
0 0  0
0 0  0
0 0  0
0 0  0
0 0  0
0 0  0
0 0  0
0 0  0
0 0  0
0 0  0
0 0  0
0 0  0
0 0  0
0 0  0
0 0  0
0 0  0
0 0  0
0 0  0
0 0  0
0 0  0
0 0  0
0 0  0
0 0  0
0 0  0
0 0  0
0 0  0
0 0  0
0 0  0
0 0  0
0 0  0
0 0  0
0 0  0
0 0  0
0 0  0
0 0  0
0 0  0
0 0  0
0 0  0
0 0  0
0 0  0
0 0  0
0 0  0
0 0  0
0 0  0
0 0  0
0 0  0
0 0  0
0 0  0
0 0  0
0 0  0
0 0  0
0 0  0
0 0  0
0 0  0
0 0  0
0 0  0
0 0  0
0 0  0
0 0  0
0 0  0
0 0  0
0 0  0
0 0  0
0 0  0
0 0  0
0 0  0
0 0  0
0 0  0
0 0  0
0 0  0
0 0  0
0 0  0
0 0  0
0 0  0
0 0  0
0 0  0
0 0  0
0 0  0
0 0  0
0 0  0
0 0  0
0 0  0
0 0  0
0 0  0
0 0  0
0 0  0
0 0  0
0 0  0
0 0  0
0 0  0
0 0  0
0 0  0
0 0  0
0 0  0
0 0  0
0 0  0
0 0  0
0 0  0
0 0  0
0 0  0
0 0  0
0 0  0
0 0  0
0 0  0
0 0  0
0 0  0
0 0  0
0 0  0
0 0  0
0 0  0
0 0  0
0 0  0
0 0  0
0 0  0
0 0  0
0 0  0
0 0  0
0 0  0
0 0  0
0 0  0
0 0  0
0 0  0
0 0  0
0 0  0
0 0  0
0 0  0
0 0  0
0 0  0
0 0  0
0 0  0
0 0  0
0 0  0
0 0  0
0 0  0
0 0  0
0 0  0
0 0  0
0 0  0
0 0  0
0 0  0
0 0  0
0 0  0
0 0  0
0 0  0
0 0  0
0 0  0
0 0  0
0 0  0
0 0  0
0 0  0
0 0  0
0 0  0
0 0  0
0 0  0
0 0  0
0 0  0
0 0  0
0 0  0
0 0  0
0 0  0
0 0  0
0 0  0
0 0  0
0 0  0
0 0  0
0 0  0
0 0  0
0 0  0
0 0  0
0 0  0
0 0  0
0 0  0
0 0  0
0 0  0
0 0  0
0 0  0
0 0  0
0 0  0
0 0  0
0 0  0
0 0  0
0 0  0
0 0  0
0 0  0
0 0  0
0 0  0
0 0  0
0 0  0
0 0  0
0 0  0
0 0  0
0 0  0
0 0  0
0 0  0
0 0  0
0 0  0
0 0  0
0 0  0
0 0  0
0 0  0
0 0  0
0 0  0
0 0  0
0 0  0
0 0  0
0 0  0
0 0  0
0 0  0
0 0  0
0 0  0
0 0  0
0 0  0
0 0  0
0 0  0
0 0  0
0 0  0
0 0  0
0 0  0
0 0  0
0 0  0
0 0  0
0 0  0
0 0  0
0 0  0
0 0  0
0 0  0
0 0  0
0 0  0
0 0  0
0 0  0
0 0  0
0 0  0
0 0  0
0 0  0
0 0  0
0 0  0
0 0  0
0 0  0
0 0  0
0 0  0
0 0  0
0 0  0
0 0  0
0 0  0
0 0  0
0 0  0
0 0  0
0 0  0
0 0  0
0 0  0
0 0  0
0 0  0
0 0  0
0 0  0
0 0  0
0 0  0
0 0  0
0 0  0
0 0  0
0 0  0
0 0  0
0 0  0
0 0  0
0 0  0
0 0  0
0 0  0
0 0  0
0 0  0
0 0  0
0 0  0
0 0  0
0 0  0
0 0  0
0 0  0
0 0  0
0 0  0
0 0  0
0 0  0
0 0  0
0 0  0
0 0  0
0 0  0
0 0  0
0 0  0
0 0  0
0 0  0
0 0  0
0 0  0
0 0  0
0 0  0
0 0  0
0 0  0
0 0  0
0 0  0
0 0  0
0 0  0
0 0  0
0 0  0
0 0  0
0 0  0
0 0  0
0 0  0
0 0  0
0 0  0
0 0  0
0 0  0
0 0  0
0 0  0
0 0  0
0 0  0
0 0  0
0 0  0
0 0  0
0 0  0
0 0  0
0 0  0
0 0  0
0 0  0
0 0  0
0 0  0
0 0  0
0 0  0
0 0  0
0 0  0
0 0  0
0 0  0
0 0  0
0 0  0
0 0  0
0 0  0
0 0  0
0 0  0
0 0  0
0 0  0
0 0  0
0 0  0
0 0  0
0 0  0
0 0  0
0 0  0
0 0  0
0 0  0
0 0  0
0 0  0
0 0  0
0 0  0
0 0  0
0 0  0
0 0  0
0 0  0
0 0  0
0 0  0
0 0  0
0 0  0
0 0  0
0 0  0
0 0  0
0 0  0
0 0  0
0 0  0
0 0  0
0 0  0
0 0  0
0 0  0
0 0  0
0 0  0
0 0  0
0 0  0
0 0  0
0 0  0
0 0  0
0 0  0
0 0  0
0 0  0
0 0  0
0 0  0
0 0  0
0 0  0
0 0  0
0 0  0
0 0  0
0 0  0
0 0  0
0 0  0
0 0  0
0 0  0
0 0  0
0 0  0
0 0  0
0 0  0
0 0  0
0 0  0
0 0  0
0 0  0
0 0  0
0 0  0
0 0  0
0 0  0
0 0  0
0 0  0
0 0  0
0 0  0
0 0  0
0 0  0
0 0  0
0 0  0
0 0  0
0 0  0
0 0  0
0 0  0
0 0  0
0 0  0
0 0  0
0 0  0
0 0  0
0 0  0
0 0  0
0 0  0
0 0  0
0 0  0
0 0  0
0 0  0
0 0  0
0 0  0
0 0  0
0 0  0
0 0  0
0 0  0
0 0  0
0 0  0
0 0  0
0 0  0
0 0  0
0 0  0
0 0  0
0 0  0
0 0  0
0 0  0
0 0  0
0 0  0
0 0  0
0 0  0
0 0  0
0 0  0
0 0  0
0 0  0
0 0  0
0 0  0
0 0  0
0 0  0
0 0  0
0 0  0
0 0  0
0 0  0
0 0  0
0 0  0
0 0  0
0 0  0
0 0  0
0 0  0
0 0  0
0 0  0
0 0  0
0 0  0
0 0  0
0 0  0
0 0  0
0 0  0
0 0  0
0 0  0
0 0  0
0 0  0
0 0  0
0 0  0
0 0  0
0 0  0
0 0  0
0 0  0
0 0  0
0 0  0
0 0  0
0 0  0
0 0  0
0 0  0
0 0  0
0 0  0
0 0  0
0 0  0
0 0  0
0 0  0
0 0  0
0 0  0
0 0  0
0 0  0
0 0  0
0 0  0
0 0  0
0 0  0
0 0  0
0 0  0
0 0  0
0 0  0
0 0  0
0 0  0
0 0  0
0 0  0
0 0  0
0 0  0
0 0  0
0 0  0
0 0  0
0 0  0
0 0  0
0 0  0
0 0  0
0 0  0
0 0  0
0 0  0
0 0  0
0 0  0
0 0  0
0 0  0
0 0  0
0 0  0
0 0  0
0 0  0
0 0  0
0 0  0
0 0  0
0 0  0
0 0  0
0 0  0
0 0  0
0 0  0
0 0  0
0 0  0
0 0  0
0 0  0
0 0  0
0 0  0
0 0  0
0 0  0
0 0  0
0 0  0
0 0  0
0 0  0
0 0  0
0 0  0
0 0  0
0 0  0
0 0  0
0 0  0
0 0  0
0 0  0
0 0  0
0 0  0
0 0  0
0 0  0
0 0  0
0 0  0
0 0  0
0 0  0
0 0  0
0 0  0
0 0  0
0 0  0
0 0  0
0 0  0
0 0  0
0 0  0
0 0  0
0 0  0
0 0  0
0 0  0
0 0  0
0 0  0
0 0  0
0 0  0
0 0  0
0 0  0
0 0  0
0 0  0
0 0  0
0 0  0
0 0  0
0 0  0
0 0  0
0 0  0
0 0  0
0 0  0
0 0  0
0 0  0
0 0  0
0 0  0
0 0  0
0 0  0
0 0  0
0 0  0
0 0  0
0 0  0
0 0  0
0 0  0
0 0  0
0 0  0
0 0  0
0 0  0
0 0  0
0 0  0
0 0  0
0 0  0
0 0  0
0 0  0
0 0  0
0 0  0
0 0  0
0 0  0
0 0  0
0 0  0
0 0  0
0 0  0
0 0  0
0 0  0
0 0  0
0 0  0
0 0  0
0 0  0
0 0  0
0 0  0
0 0  0
0 0  0
0 0  0
0 0  0
0 0  0
0 0  0
0 0  0
0 0  0
0 0  0
0 0  0
0 0  0
0 0  0
0 0  0
0 0  0
0 0  0
0 0  0
0 0  0
0 0  0
0 0  0
0 0  0
0 0  0
0 0  0
0 0  0
0 0  0
0 0  0
0 0  0
0 0  0
0 0  0
0 0  0
0 0  0
0 0  0
0 0  0
0 0  0
0 0  0
0 0  0
0 0  0
0 0  0
0 0  0
0 0  0
0 0  0
0 0  0
0 0  0
0 0  0
0 0  0
0 0  0
0 0  0
0 0  0
0 0  0
0 0  0
0 0  0
0 0  0
0 0  0
0 0  0
0 0  0
0 0  0
0 0  0
0 0  0
0 0  0
0 0  0
0 0  0
0 0  0
0 0  0
0 0  0
0 0  0
0 0  0
0 0  0
0 0  0
0 0  0
0 0  0
0 0  0
0 0  0
0 0  0
0 0  0
0 0  0
0 0  0
0 0  0
0 0  0
0 0  0
0 0  0
0 0  0
0 0  0
0 0  0
0 0  0
0 0  0
0 0  0
0 0  0
0 0  0
0 0  0
0 0  0
0 0  0
0 0  0
0 0  0
0 0  0
0 0  0
0 0  0
0 0  0
0 0  0
0 0  0
0 0  0
0 0  0
0 0  0
0 0  0
0 0  0
0 0  0
0 0  0
0 0  0
0 0  0
0 0  0
0 0  0
0 0  0
0 0  0
0 0  0
0 0  0
0 0  0
0 0  0
0 0  0
0 0  0
0 0  0
0 0  0
0 0  0
0 0  0
0 0  0
0 0  0
0 0  0
0 0  0
0 0  0
0 0  0
0 0  0
0 0  0

SCALARS pressure double 1
LOOKUP_TABLE default
2.37288
2.71701
1.98594
1.40358
1.05053
0.82861
0.686415
0.594567
0.534307
0.493352
0.464409
0.441136
0.41926
0.39519
0.366511
0.335187
0.316019
0.302281
0.295768
0.291573
0.289143
0.290242
0.288438
0.294225
0.291493
0.302728
0.297913
0.316011
0.307779
0.33305
0.319203
0.348374
0.32611
0.351915
0.322043
0.338247
0.309711
0.315978
0.302395
0.301799
0.308925
0.301276
0.319291
0.303271
0.318756
0.297372
0.300848
0.274208
0.247446
0.227849
1.57155
1.61474
1.29052
0.966692
0.726392
0.561764
0.451989
0.379949
0.331867
0.299442
0.275949
0.256989
0.238995
0.21643
0.184364
0.138412
0.127691
0.114789
0.112908
0.110832
0.105637
0.115082
0.101292
0.12497
0.0979531
0.141017
0.0955777
0.164589
0.095
0.194141
0.0968265
0.221308
0.0986702
0.228973
0.0971209
0.204885
0.097004
0.1583
0.112335
0.116566
0.146514
0.0980182
0.176205
0.0938517
0.178709
0.0941681
0.151791
0.0915001
0.0800427
0
0.736845
0.718002
0.597309
0.456536
0.340524
0.2554
0.197453
0.158404
0.132262
0.114495
0.101678
0.0908838
0.0809651
0.0651438
0.0325323
-0.0784337
-0.0390953
-0.0635326
-0.0492745
-0.0456676
-0.0730384
-0.0147185
-0.105893
0.0281777
-0.152974
0.0864718
-0.217944
0.162164
-0.300457
0.252125
-0.385267
0.331198
-0.437869
0.355041
-0.416265
0.285165
-0.299148
0.124387
-0.110209
-0.072935
0.0826173
-0.23068
0.202809
-0.29542
0.215446
-0.254794
0.134632
-0.128051
0.00724848
0
-0.0613844
-0.0583007
-0.058772
-0.0627056
-0.060258
-0.0609717
-0.0584427
-0.058355
-0.0569909
-0.0570407
-0.0559209
-0.0575137
-0.0524235
-0.0511161
-0.0237873
0
0
0
0
0
0
0
0
0
0
0
0
0
0
0
0
0
0
0
0
0
0
0
0
0
0
0
0
0
0
0
0
0
0
0
0
0
0
0
0
0
0
0
0
0
0
0
0
0
0
0
0
0
0
0
0
0
0
0
0
0
0
0
0
0
0
0
0
0
0
0
0
0
0
0
0
0
0
0
0
0
0
0
0
0
0
0
0
0
0
0
0
0
0
0
0
0
0
0
0
0
0
0
0
0
0
0
0
0
0
0
0
0
0
0
0
0
0
0
0
0
0
0
0
0
0
0
0
0
0
0
0
0
0
0
0
0
0
0
0
0
0
0
0
0
0
0
0
0
0
0
0
0
0
0
0
0
0
0
0
0
0
0
0
0
0
0
0
0
0
0
0
0
0
0
0
0
0
0
0
0
0
0
0
0
0
0
0
0
0
0
0
0
0
0
0
0
0
0
0
0
0
0
0
0
0
0
0
0
0
0
0
0
0
0
0
0
0
0
0
0
0
0
0
0
0
0
0
0
0
0
0
0
0
0
0
0
0
0
0
0
0
0
0
0
0
0
0
0
0
0
0
0
0
0
0
0
0
0
0
0
0
0
0
0
0
0
0
0
0
0
0
0
0
0
0
0
0
0
0
0
0
0
0
0
0
0
0
0
0
0
0
0
0
0
0
0
0
0
0
0
0
0
0
0
0
0
0
0
0
0
0
0
0
0
0
0
0
0
0
0
0
0
0
0
0
0
0
0
0
0
0
0
0
0
0
0
0
0
0
0
0
0
0
0
0
0
0
0
0
0
0
0
0
0
0
0
0
0
0
0
0
0
0
0
0
0
0
0
0
0
0
0
0
0
0
0
0
0
0
0
0
0
0
0
0
0
0
0
0
0
0
0
0
0
0
0
0
0
0
0
0
0
0
0
0
0
0
0
0
0
0
0
0
0
0
0
0
0
0
0
0
0
0
0
0
0
0
0
0
0
0
0
0
0
0
0
0
0
0
0
0
0
0
0
0
0
0
0
0
0
0
0
0
0
0
0
0
0
0
0
0
0
0
0
0
0
0
0
0
0
0
0
0
0
0
0
0
0
0
0
0
0
0
0
0
0
0
0
0
0
0
0
0
0
0
0
0
0
0
0
0
0
0
0
0
0
0
0
0
0
0
0
0
0
0
0
0
0
0
0
0
0
0
0
0
0
0
0
0
0
0
0
0
0
0
0
0
0
0
0
0
0
0
0
0
0
0
0
0
0
0
0
0
0
0
0
0
0
0
0
0
0
0
0
0
0
0
0
0
0
0
0
0
0
0
0
0
0
0
0
0
0
0
0
0
0
0
0
0
0
0
0
0
0
0
0
0
0
0
0
0
0
0
0
0
0
0
0
0
0
0
0
0
0
0
0
0
0
0
0
0
0
0
0
0
0
0
0
0
0
0
0
0
0
0
0
0
0
0
0
0
0
0
0
0
0
0
0
0
0
0
0
0
0
0
0
0
0
0
0
0
0
0
0
0
0
0
0
0
0
0
0
0
0
0
0
0
0
0
0
0
0
0
0
0
0
0
0
0
0
0
0
0
0
0
0
0
0
0
0
0
0
0
0
0
0
0
0
0
0
0
0
0
0
0
0
0
0
0
0
0
0
0
0
0
0
0
0
0
0
0
0
0
0
0
0
0
0
0
0
0
0
0
0
0
0
0
0
0
0
0
0
0
0
0
0
0
0
0
0
0
0
0
0
0
0
0
0
0
0
0
0
0
0
0
0
0
0
0
0
0
0
0
0
0
0
0
0
0
0
0
0
0
0
0
0
0
0
0
0
0
0
0
0
0
0
0
0
0
0
0
0
0
0
0
0
0
0
0
0
0
0
0
0
0
0
0
0
0
0
0
0
0
0
SCALARS rhs double 1
LOOKUP_TABLE default
-11.614
-54.4805
-13.6999
-5.21244
-4.83464
-4.68844
-4.60638
-4.57736
-4.58137
-4.54734
-4.57099
-4.56859
-4.56043
-4.58779
-4.61313
-4.62373
-4.56265
-4.51809
-4.50049
-4.48847
-4.48454
-4.46618
-4.47492
-4.45614
-4.47984
-4.4499
-4.48304
-4.44226
-4.48645
-4.44323
-4.4928
-4.45276
-4.49332
-4.45736
-4.47711
-4.44894
-4.44926
-4.4381
-4.42602
-4.43869
-4.42913
-4.43984
-4.42824
-4.44779
-4.42282
-4.45861
-4.47936
-4.57074
-4.00595
-5.20631
0.215336
-4.023
0.076434
0.278589
0.344461
0.397646
0.437654
0.428036
0.467179
0.443856
0.472136
0.471571
0.445104
0.448245
0.408065
0.383903
0.478534
0.511513
0.504405
0.536578
0.477664
0.562417
0.426558
0.552468
0.310232
0.471794
0.0783687
0.260694
-0.347341
0.00747146
-0.943159
-0.259853
-1.39806
-0.334272
-1.21659
-0.053639
-0.354454
0.411742
0.442514
0.537042
0.501073
0.031231
0.228878
-0.316144
0.184568
-0.0898241
0.349641
0.299749
0.650596
3.26173
0.440696
0.481528
0.442714
0.396581
0.408933
0.429667
0.445405
0.441295
0.467906
0.462422
0.465275
0.467528
0.465214
0.459174
0.427449
0.181673
0.412742
2.11142
1.20595
3.78816
4.08402
6.54971
5.94721
5.84967
6.55966
9.87109
9.89271
9.73543
17.8997
18.0852
17.0418
15.641
13.7126
11.6336
11.9833
13.0654
13.051
11.0669
7.11321
7.08348
6.87257
5.17567
3.88253
4.81043
3.57295
1.62436
2.28354
2.84554
0.658811
0
0.909122
0.931305
1.00588
1.06669
1.198
1.29037
2.40225
2.40199
3.31695
4.84972
4.49461
3.29482
6.426
6.08493
11.1895
12.7956
14.0969
15.7691
35.7955
28.0565
20.5298
16.247
13.5584
10.8402
10.7865
8.4957
6.05141
2.40646
0
0
0
0
0
0
0
0
0
0
0
0
0
0
0
0
0
0
0
0
0
0
5.36272
5.33529
5.71969
5.67828
4.75936
4.29628
3.76069
4.49375
4.93377
7.83712
7.96544
8.66736
9.26158
8.97228
43.8307
32.8547
19.5017
9.00999
0
0
0
0
0
0
0
0
0
0
0
0
0
0
0
0
0
0
0
0
0
0
0
0
0
0
0
0
0
0
0
0
6.36602
6.31525
5.9657
5.40632
4.81609
4.65051
4.54086
5.49725
6.68708
4.04255
4.68643
4.81997
12.4974
35.3186
0
0
0
0
0
0
0
0
0
0
0
0
0
0
0
0
0
0
0
0
0
0
0
0
0
0
0
0
0
0
0
0
0
0
0
0
1.47614
1.54411
2.09799
2.47435
3.77929
5.12603
6.33856
5.10183
2.09579
1.47098
2.53607
14.3387
26.3021
0
0
0
0
0
0
0
0
0
0
0
0
0
0
0
0
0
0
0
0
0
0
0
0
0
0
0
0
0
0
0
0
0
0
0
0
0
2.59543
2.54951
1.62039
1.22694
0.49828
0.777197
0.916648
3.70181
7.89906
8.9678
11.6117
27.2717
0
0
0
0
0
0
0
0
0
0
0
0
0
0
0
0
0
0
0
0
0
0
0
0
0
0
0
0
0
0
0
0
0
0
0
0
0
0
2.45787
2.59584
4.01582
4.53242
6.43299
7.47839
9.23983
7.89527
5.98596
8.49533
41.2731
0
0
0
0
0
0
0
0
0
0
0
0
0
0
0
0
0
0
0
0
0
0
0
0
0
0
0
0
0
0
0
0
0
0
0
0
0
0
0
9.36633
9.33066
8.04142
9.25902
7.69325
7.78758
9.09454
10.208
11.1703
21.7759
3.2041
0
0
0
0
0
0
0
0
0
0
0
0
0
0
0
0
0
0
0
0
0
0
0
0
0
0
0
0
0
0
0
0
0
0
0
0
0
0
0
7.92952
10.0992
10.1145
8.86149
11.2589
12.4355
10.8064
8.57914
8.60392
43.2779
0
0
0
0
0
0
0
0
0
0
0
0
0
0
0
0
0
0
0
0
0
0
0
0
0
0
0
0
0
0
0
0
0
0
0
0
0
0
0
0
13.2058
10.8439
11.0393
13.0106
10.7272
10.2862
9.48307
9.57063
8.67562
33.2233
0
0
0
0
0
0
0
0
0
0
0
0
0
0
0
0
0
0
0
0
0
0
0
0
0
0
0
0
0
0
0
0
0
0
0
0
0
0
0
0
8.71388
9.82855
9.83715
7.65861
8.9401
7.02241
6.34758
6.44313
5.90605
26.1906
0
0
0
0
0
0
0
0
0
0
0
0
0
0
0
0
0
0
0
0
0
0
0
0
0
0
0
0
0
0
0
0
0
0
0
0
0
0
0
0
7.061
5.55892
5.71513
6.83869
5.56628
5.6724
5.42452
5.43401
4.26976
17.1298
0
0
0
0
0
0
0
0
0
0
0
0
0
0
0
0
0
0
0
0
0
0
0
0
0
0
0
0
0
0
0
0
0
0
0
0
0
0
0
0
6.55202
6.55536
6.55982
5.31204
5.40986
6.30896
5.08555
5.09432
5.2091
10.3371
0
0
0
0
0
0
0
0
0
0
0
0
0
0
0
0
0
0
0
0
0
0
0
0
0
0
0
0
0
0
0
0
0
0
0
0
0
0
0
0
5.52783
5.53996
5.54196
5.54121
5.54439
4.52522
5.16545
5.22779
16.4546
0
0
0
0
0
0
0
0
0
0
0
0
0
0
0
0
0
0
0
0
0
0
0
0
0
0
0
0
0
0
0
0
0
0
0
0
0
0
0
0
0
3.60674
3.66202
3.98033
3.98143
3.98244
3.98396
3.23505
3.31189
11.5415
0
0
0
0
0
0
0
0
0
0
0
0
0
0
0
0
0
0
0
0
0
0
0
0
0
0
0
0
0
0
0
0
0
0
0
0
0
0
0
0
0
6.01719
6.36025
5.75447
5.75462
5.75506
5.75536
5.75588
5.76119
8.30564
0
0
0
0
0
0
0
0
0
0
0
0
0
0
0
0
0
0
0
0
0
0
0
0
0
0
0
0
0
0
0
0
0
0
0
0
0
0
0
0
0
3.29611
2.74112
2.74112
2.74112
2.74112
2.74112
2.74112
2.74112
2.74112
0
0
0
0
0
0
0
0
0
0
0
0
0
0
0
0
0
0
0
0
0
0
0
0
0
0
0
0
0
0
0
0
0
0
0
0
0
0
0
0
0
0
0
0
0
0
0
0
0
0
0
0
0
0
0
0
0
0
0
0
0
0
0
0
0
0
0
0
0
0
0
0
0
0
0
0
0
0
0
0
0
0
0
0
0
0
0
0
0
0
0
