# vtk DataFile Version 4.0
Nusif Fluid VTK output
ASCII
DATASET STRUCTURED_POINTS
DIMENSIONS 50 20 1
ORIGIN 0 0 0 
SPACING 0.2 0.2 1
POINT_DATA 1000 

VECTORS velocity double
0.0518975 -0.0557966  0
0.155934 -0.0566718  0
0.261872 -0.0583931  0
0.372001 -0.0609819  0
0.488067 -0.0644484  0
0.611804 -0.0687665  0
0.744797 -0.0738151  0
0.888208 -0.0792883  0
1.04233 -0.084616  0
1.20601 -0.088942  0
1.37621 -0.0912114  0
1.54789 -0.0904925  0
1.71444 -0.086135  0
1.86832 -0.0778886  0
2.00253 -0.0664962  0
2.11366 -0.0548511  0
2.20132 -0.0430412  0
2.26513 -0.0310318  0
2.30779 -0.0218881  0
2.33241 -0.0130076  0
2.33849 -0.00335508  0
2.33107 0.000484728  0
2.315 0.00530263  0
2.28582 0.0135898  0
2.2762 -0.00910827  0
1.14265 0.0161199  0
0 0  0
0 0  0
0 0  0
0 0  0
0 0  0
0 0  0
0 0  0
0 0  0
0 0  0
0 0  0
0 0  0
0 0  0
0 0  0
0 0  0
0 0  0
0 0  0
0 0  0
0 0  0
0 0  0
0 0  0
0 0  0
0 0  0
0 0  0
0 0  0
0.0509773 -0.167117  0
0.153204 -0.169671  0
0.257319 -0.174739  0
0.365521 -0.182394  0
0.47955 -0.192692  0
0.601192 -0.205594  0
0.732156 -0.22077  0
0.87382 -0.237349  0
1.02669 -0.253594  0
1.18966 -0.266761  0
1.3593 -0.273473  0
1.52995 -0.270871  0
1.69436 -0.257091  0
1.84413 -0.231031  0
1.9705 -0.194411  0
2.0714 -0.159483  0
2.14979 -0.124988  0
2.20387 -0.0875427  0
2.23757 -0.062286  0
2.25858 -0.038817  0
2.26226 -0.0078763  0
2.2543 -0.000199785  0
2.24812 0.00766707  0
2.24038 0.0327141  0
2.23485 -0.0182165  0
1.11742 0.00701166  0
0 0  0
0 0  0
0 0  0
0 0  0
0 0  0
0 0  0
0 0  0
0 0  0
0 0  0
0 0  0
0 0  0
0 0  0
0 0  0
0 0  0
0 0  0
0 0  0
0 0  0
0 0  0
0 0  0
0 0  0
0 0  0
0 0  0
0 0  0
0 0  0
0.0492363 -0.276504  0
0.147994 -0.280614  0
0.248555 -0.288833  0
0.352968 -0.301314  0
0.462944 -0.318208  0
0.580337 -0.339566  0
0.707088 -0.365003  0
0.845016 -0.393223  0
0.995106 -0.421224  0
1.15627 -0.443831  0
1.32425 -0.454601  0
1.49194 -0.448675  0
1.65131 -0.423668  0
1.79261 -0.376138  0
1.90203 -0.305714  0
1.98127 -0.248933  0
2.04348 -0.196737  0
2.08219 -0.12919  0
2.1018 -0.0945371  0
2.11806 -0.0644328  0
2.12406 -0.00737977  0
2.12438 -0.00334778  0
2.12636 0.00472887  0
2.20884 0.0214887  0
2.26308 -0.00910827  0
1.11742 -0.00910827  0
0 0  0
0 0  0
0 0  0
0 0  0
0 0  0
0 0  0
0 0  0
0 0  0
0 0  0
0 0  0
0 0  0
0 0  0
0 0  0
0 0  0
0 0  0
0 0  0
0 0  0
0 0  0
0 0  0
0 0  0
0 0  0
0 0  0
0 0  0
0 0  0
0.046771 -0.381854  0
0.140574 -0.387374  0
0.23599 -0.398478  0
0.334868 -0.41542  0
0.438811 -0.438508  0
0.549653 -0.468009  0
0.669589 -0.503777  0
0.801061 -0.544398  0
0.945797 -0.585448  0
1.10272 -0.618291  0
1.26598 -0.63198  0
1.42585 -0.619477  0
1.57437 -0.581382  0
1.70169 -0.507676  0
1.78427 -0.386816  0
1.83179 -0.315224  0
1.87504 -0.25652  0
1.90505 -0.153575  0
1.92634 -0.12135  0
1.93941 -0.0772468  0
2.03071 -0.0414819  0
2.11916 -0.00266326  0
2.12133 0.00236444  0
1.06318 0.00236444  0
0 0  0
0 0  0
0 0  0
0 0  0
0 0  0
0 0  0
0 0  0
0 0  0
0 0  0
0 0  0
0 0  0
0 0  0
0 0  0
0 0  0
0 0  0
0 0  0
0 0  0
0 0  0
0 0  0
0 0  0
0 0  0
0 0  0
0 0  0
0 0  0
0 0  0
0 0  0
0.0437379 -0.481879  0
0.1314 -0.48857  0
0.220379 -0.502175  0
0.312266 -0.523003  0
0.408417 -0.551548  0
0.51043 -0.588384  0
0.620502 -0.633983  0
0.741698 -0.687448  0
0.876784 -0.742823  0
1.02464 -0.786307  0
1.17726 -0.800486  0
1.31865 -0.772869  0
1.44383 -0.722338  0
1.54699 -0.617848  0
1.60535 -0.433074  0
1.63726 -0.358724  0
1.65414 -0.283459  0
1.77002 -0.222626  0
1.88406 -0.067211  0
1.91082 -0.0386234  0
0.969705 -0.0386234  0
0 0  0
0 0  0
0 0  0
0 0  0
0 0  0
0 0  0
0 0  0
0 0  0
0 0  0
0 0  0
0 0  0
0 0  0
0 0  0
0 0  0
0 0  0
0 0  0
0 0  0
0 0  0
0 0  0
0 0  0
0 0  0
0 0  0
0 0  0
0 0  0
0 0  0
0 0  0
0 0  0
0 0  0
0 0  0
0.0404172 -0.575724  0
0.121278 -0.583213  0
0.203077 -0.59887  0
0.287151 -0.622834  0
0.374474 -0.655765  0
0.466027 -0.698333  0
0.563194 -0.751882  0
0.669327 -0.817504  0
0.788449 -0.88761  0
0.919346 -0.94091  0
1.05411 -0.953938  0
1.15913 -0.886489  0
1.23162 -0.827043  0
1.26616 -0.666337  0
1.40702 -0.557225  0
1.55494 -0.1878  0
1.60807 -0.14173  0
0.827069 -0.14173  0
0 0  0
0 0  0
0 0  0
0 0  0
0 0  0
0 0  0
0 0  0
0 0  0
0 0  0
0 0  0
0 0  0
0 0  0
0 0  0
0 0  0
0 0  0
0 0  0
0 0  0
0 0  0
0 0  0
0 0  0
0 0  0
0 0  0
0 0  0
0 0  0
0 0  0
0 0  0
0 0  0
0 0  0
0 0  0
0 0  0
0 0  0
0 0  0
0.0372362 -0.663237  0
0.111473 -0.670962  0
0.186231 -0.688289  0
0.262617 -0.714489  0
0.341467 -0.750907  0
0.422506 -0.796421  0
0.505248 -0.854342  0
0.592079 -0.928662  0
0.686466 -1.01062  0
0.788852 -1.07184  0
0.896056 -1.08566  0
0.966608 -0.945855  0
0.982864 -0.86675  0
1.12451 -0.766544  0
0.633079 -0.333168  0
0 0  0
0 0  0
0 0  0
0 0  0
0 0  0
0 0  0
0 0  0
0 0  0
0 0  0
0 0  0
0 0  0
0 0  0
0 0  0
0 0  0
0 0  0
0 0  0
0 0  0
0 0  0
0 0  0
0 0  0
0 0  0
0 0  0
0 0  0
0 0  0
0 0  0
0 0  0
0 0  0
0 0  0
0 0  0
0 0  0
0 0  0
0 0  0
0 0  0
0 0  0
0 0  0
0.0346384 -0.745134  0
0.103471 -0.75249  0
0.172871 -0.771583  0
0.242459 -0.79783  0
0.313801 -0.838422  0
0.386063 -0.882872  0
0.45818 -0.943419  0
0.52436 -1.01328  0
0.582219 -1.09894  0
0.643118 -1.16749  0
0.709052 -1.17866  0
0.815043 -0.986797  0
0.935183 -0.433375  0
0.491432 -0.433375  0
0 0  0
0 0  0
0 0  0
0 0  0
0 0  0
0 0  0
0 0  0
0 0  0
0 0  0
0 0  0
0 0  0
0 0  0
0 0  0
0 0  0
0 0  0
0 0  0
0 0  0
0 0  0
0 0  0
0 0  0
0 0  0
0 0  0
0 0  0
0 0  0
0 0  0
0 0  0
0 0  0
0 0  0
0 0  0
0 0  0
0 0  0
0 0  0
0 0  0
0 0  0
0 0  0
0 0  0
0.0326959 -0.822648  0
0.0984566 -0.830105  0
0.165731 -0.85135  0
0.230173 -0.87279  0
0.292172 -0.917496  0
0.358917 -0.96349  0
0.429695 -1.02639  0
0.477939 -1.06026  0
0.519091 -1.16131  0
0.544839 -1.20209  0
0.541876 -1.21219  0
0.270938 -1.11184  0
0 0  0
0 0  0
0 0  0
0 0  0
0 0  0
0 0  0
0 0  0
0 0  0
0 0  0
0 0  0
0 0  0
0 0  0
0 0  0
0 0  0
0 0  0
0 0  0
0 0  0
0 0  0
0 0  0
0 0  0
0 0  0
0 0  0
0 0  0
0 0  0
0 0  0
0 0  0
0 0  0
0 0  0
0 0  0
0 0  0
0 0  0
0 0  0
0 0  0
0 0  0
0 0  0
0 0  0
0 0  0
0 0  0
0.033067 -0.893539  0
0.102203 -0.904421  0
0.165 -0.917467  0
0.22632 -0.942791  0
0.293722 -0.98725  0
0.338907 -1.01601  0
0.351283 -1.06737  0
0.479494 -1.07003  0
0.582307 -0.595012  0
0.555922 -0.599565  0
0.548406 -0.606095  0
0.270938 -0.606095  0
0 0  0
0 0  0
0 0  0
0 0  0
0 0  0
0 0  0
0 0  0
0 0  0
0 0  0
0 0  0
0 0  0
0 0  0
0 0  0
0 0  0
0 0  0
0 0  0
0 0  0
0 0  0
0 0  0
0 0  0
0 0  0
0 0  0
0 0  0
0 0  0
0 0  0
0 0  0
0 0  0
0 0  0
0 0  0
0 0  0
0 0  0
0 0  0
0 0  0
0 0  0
0 0  0
0 0  0
0 0  0
0 0  0
0.0400089 -0.463303  0
0.110997 -0.470245  0
0.183446 -0.472098  0
0.264252 -0.488692  0
0.319224 -0.51003  0
0.36256 -0.514194  0
0.370771 -0.533683  0
0.175641 -0.533683  0
0 0  0
0 0  0
0 0  0
0 0  0
0 0  0
0 0  0
0 0  0
0 0  0
0 0  0
0 0  0
0 0  0
0 0  0
0 0  0
0 0  0
0 0  0
0 0  0
0 0  0
0 0  0
0 0  0
0 0  0
0 0  0
0 0  0
0 0  0
0 0  0
0 0  0
0 0  0
0 0  0
0 0  0
0 0  0
0 0  0
0 0  0
0 0  0
0 0  0
0 0  0
0 0  0
0 0  0
0 0  0
0 0  0
0 0  0
0 0  0
0 0  0
0 0  0
0 0  0
0 0  0
0 0  0
0 0  0
0 0  0
0 0  0
0 0  0
0 0  0
0 0  0
0 0  0
0 0  0
0 0  0
0 0  0
0 0  0
0 0  0
0 0  0
0 0  0
0 0  0
0 0  0
0 0  0
0 0  0
0 0  0
0 0  0
0 0  0
0 0  0
0 0  0
0 0  0
0 0  0
0 0  0
0 0  0
0 0  0
0 0  0
0 0  0
0 0  0
0 0  0
0 0  0
0 0  0
0 0  0
0 0  0
0 0  0
0 0  0
0 0  0
0 0  0
0 0  0
0 0  0
0 0  0
0 0  0
0 0  0
0 0  0
0 0  0
0 0  0
0 0  0
0 0  0
0 0  0
0 0  0
0 0  0
0 0  0
0 0  0
0 0  0
0 0  0
0 0  0
0 0  0
0 0  0
0 0  0
0 0  0
0 0  0
0 0  0
0 0  0
0 0  0
0 0  0
0 0  0
0 0  0
0 0  0
0 0  0
0 0  0
0 0  0
0 0  0
0 0  0
0 0  0
0 0  0
0 0  0
0 0  0
0 0  0
0 0  0
0 0  0
0 0  0
0 0  0
0 0  0
0 0  0
0 0  0
0 0  0
0 0  0
0 0  0
0 0  0
0 0  0
0 0  0
0 0  0
0 0  0
0 0  0
0 0  0
0 0  0
0 0  0
0 0  0
0 0  0
0 0  0
0 0  0
0 0  0
0 0  0
0 0  0
0 0  0
0 0  0
0 0  0
0 0  0
0 0  0
0 0  0
0 0  0
0 0  0
0 0  0
0 0  0
0 0  0
0 0  0
0 0  0
0 0  0
0 0  0
0 0  0
0 0  0
0 0  0
0 0  0
0 0  0
0 0  0
0 0  0
0 0  0
0 0  0
0 0  0
0 0  0
0 0  0
0 0  0
0 0  0
0 0  0
0 0  0
0 0  0
0 0  0
0 0  0
0 0  0
0 0  0
0 0  0
0 0  0
0 0  0
0 0  0
0 0  0
0 0  0
0 0  0
0 0  0
0 0  0
0 0  0
0 0  0
0 0  0
0 0  0
0 0  0
0 0  0
0 0  0
0 0  0
0 0  0
0 0  0
0 0  0
0 0  0
0 0  0
0 0  0
0 0  0
0 0  0
0 0  0
0 0  0
0 0  0
0 0  0
0 0  0
0 0  0
0 0  0
0 0  0
0 0  0
0 0  0
0 0  0
0 0  0
0 0  0
0 0  0
0 0  0
0 0  0
0 0  0
0 0  0
0 0  0
0 0  0
0 0  0
0 0  0
0 0  0
0 0  0
0 0  0
0 0  0
0 0  0
0 0  0
0 0  0
0 0  0
0 0  0
0 0  0
0 0  0
0 0  0
0 0  0
0 0  0
0 0  0
0 0  0
0 0  0
0 0  0
0 0  0
0 0  0
0 0  0
0 0  0
0 0  0
0 0  0
0 0  0
0 0  0
0 0  0
0 0  0
0 0  0
0 0  0
0 0  0
0 0  0
0 0  0
0 0  0
0 0  0
0 0  0
0 0  0
0 0  0
0 0  0
0 0  0
0 0  0
0 0  0
0 0  0
0 0  0
0 0  0
0 0  0
0 0  0
0 0  0
0 0  0
0 0  0
0 0  0
0 0  0
0 0  0
0 0  0
0 0  0
0 0  0
0 0  0
0 0  0
0 0  0
0 0  0
0 0  0
0 0  0
0 0  0
0 0  0
0 0  0
0 0  0
0 0  0
0 0  0
0 0  0
0 0  0
0 0  0
0 0  0
0 0  0
0 0  0
0 0  0
0 0  0
0 0  0
0 0  0
0 0  0
0 0  0
0 0  0
0 0  0
0 0  0
0 0  0
0 0  0
0 0  0
0 0  0
0 0  0
0 0  0
0 0  0
0 0  0
0 0  0
0 0  0
0 0  0
0 0  0
0 0  0
0 0  0
0 0  0
0 0  0
0 0  0
0 0  0
0 0  0
0 0  0
0 0  0
0 0  0
0 0  0
0 0  0
0 0  0
0 0  0
0 0  0
0 0  0
0 0  0
0 0  0
0 0  0
0 0  0
0 0  0
0 0  0
0 0  0
0 0  0
0 0  0
0 0  0
0 0  0
0 0  0
0 0  0
0 0  0
0 0  0
0 0  0
0 0  0
0 0  0
0 0  0
0 0  0
0 0  0
0 0  0
0 0  0
0 0  0
0 0  0
0 0  0
0 0  0
0 0  0
0 0  0
0 0  0
0 0  0
0 0  0
0 0  0
0 0  0
0 0  0
0 0  0
0 0  0
0 0  0
0 0  0
0 0  0
0 0  0
0 0  0
0 0  0
0 0  0
0 0  0
0 0  0
0 0  0
0 0  0
0 0  0
0 0  0
0 0  0
0 0  0
0 0  0
0 0  0
0 0  0
0 0  0
0 0  0
0 0  0
0 0  0
0 0  0
0 0  0
0 0  0
0 0  0
0 0  0
0 0  0
0 0  0
0 0  0
0 0  0
0 0  0
0 0  0
0 0  0
0 0  0
0 0  0
0 0  0
0 0  0
0 0  0
0 0  0
0 0  0
0 0  0
0 0  0
0 0  0
0 0  0
0 0  0
0 0  0
0 0  0
0 0  0
0 0  0
0 0  0
0 0  0
0 0  0
0 0  0
0 0  0
0 0  0
0 0  0
0 0  0
0 0  0
0 0  0
0 0  0
0 0  0
0 0  0
0 0  0
0 0  0
0 0  0
0 0  0
0 0  0
0 0  0
0 0  0
0 0  0
0 0  0
0 0  0
0 0  0
0 0  0
0 0  0
0 0  0
0 0  0
0 0  0
0 0  0
0 0  0
0 0  0
0 0  0
0 0  0
0 0  0
0 0  0
0 0  0
0 0  0
0 0  0
0 0  0
0 0  0
0 0  0
0 0  0
0 0  0
0 0  0
0 0  0
0 0  0
0 0  0
0 0  0
0 0  0
0 0  0
0 0  0
0 0  0
0 0  0
0 0  0
0 0  0
0 0  0
0 0  0
0 0  0
0 0  0

SCALARS pressure double 1
LOOKUP_TABLE default
2.70899
2.7065
2.70012
2.68811
2.66852
2.63852
2.59425
2.53086
2.44281
2.32494
2.17416
1.99145
1.78321
1.56131
1.34149
1.13845
0.958333
0.803873
0.675519
0.564876
0.467219
0.381549
0.287624
0.168125
0
0
0
0
0
0
0
0
0
0
0
0
0
0
0
0
0
0
0
0
0
0
0
0
0
0
2.47872
2.47613
2.46941
2.45686
2.43653
2.40555
2.36003
2.29503
2.20471
2.0836
1.92841
1.74065
1.5276
1.30214
1.08251
0.886142
0.713774
0.566397
0.450407
0.346834
0.250415
0.184124
0.10628
0
-0.00872413
0
0
0
0
0
0
0
0
0
0
0
0
0
0
0
0
0
0
0
0
0
0
0
0
0
2.22399
2.22113
2.21382
2.20036
2.17882
2.14628
2.09885
2.03133
1.9373
1.81033
1.64675
1.44893
1.22609
0.992255
0.771493
0.592554
0.435743
0.294985
0.211739
0.122537
0.00850261
-0.000178343
-0.0577494
0
0
0
0
0
0
0
0
0
0
0
0
0
0
0
0
0
0
0
0
0
0
0
0
0
0
0
1.94609
1.94287
1.93482
1.92024
1.89706
1.86238
1.81235
1.74154
1.64276
1.50786
1.33231
1.12036
0.885155
0.63753
0.408243
0.275854
0.148817
-0.0157036
-0.0093649
-0.0734058
0
0
0
0
0
0
0
0
0
0
0
0
0
0
0
0
0
0
0
0
0
0
0
0
0
0
0
0
0
0
1.64729
1.64372
1.63495
1.61919
1.59411
1.5567
1.50325
1.42858
1.3251
1.18164
0.991731
0.763178
0.522112
0.258829
-0.0218878
-0.0206392
-0.0761956
0
0
0
0
0
0
0
0
0
0
0
0
0
0
0
0
0
0
0
0
0
0
0
0
0
0
0
0
0
0
0
0
0
1.33017
1.32638
1.31722
1.30066
1.27381
1.23313
1.17516
1.09598
0.990428
0.841705
0.637216
0.386847
0.176183
-0.0471556
0
0
0
0
0
0
0
0
0
0
0
0
0
0
0
0
0
0
0
0
0
0
0
0
0
0
0
0
0
0
0
0
0
0
0
0
0.997185
0.993484
0.984701
0.968592
0.941096
0.897056
0.83274
0.745704
0.647162
0.50633
0.293228
-0.00932399
-0.0992214
0
0
0
0
0
0
0
0
0
0
0
0
0
0
0
0
0
0
0
0
0
0
0
0
0
0
0
0
0
0
0
0
0
0
0
0
0
0.650251
0.646968
0.639786
0.627071
0.602202
0.556282
0.483746
0.369831
0.304545
0.20507
0.0545654
0
0
0
0
0
0
0
0
0
0
0
0
0
0
0
0
0
0
0
0
0
0
0
0
0
0
0
0
0
0
0
0
0
0
0
0
0
0
0
0.290514
0.287354
0.282463
0.279822
0.264547
0.221995
0.153114
-0.0603579
-0.00771292
-0.0442245
-0.0641588
0
0
0
0
0
0
0
0
0
0
0
0
0
0
0
0
0
0
0
0
0
0
0
0
0
0
0
0
0
0
0
0
0
0
0
0
0
0
0
-0.0620743
-0.0677087
-0.0750785
-0.0502197
-0.0417719
-0.0829437
-0.0272729
0
0
0
0
0
0
0
0
0
0
0
0
0
0
0
0
0
0
0
0
0
0
0
0
0
0
0
0
0
0
0
0
0
0
0
0
0
0
0
0
0
0
0
0
0
0
0
0
0
0
0
0
0
0
0
0
0
0
0
0
0
0
0
0
0
0
0
0
0
0
0
0
0
0
0
0
0
0
0
0
0
0
0
0
0
0
0
0
0
0
0
0
0
0
0
0
0
0
0
0
0
0
0
0
0
0
0
0
0
0
0
0
0
0
0
0
0
0
0
0
0
0
0
0
0
0
0
0
0
0
0
0
0
0
0
0
0
0
0
0
0
0
0
0
0
0
0
0
0
0
0
0
0
0
0
0
0
0
0
0
0
0
0
0
0
0
0
0
0
0
0
0
0
0
0
0
0
0
0
0
0
0
0
0
0
0
0
0
0
0
0
0
0
0
0
0
0
0
0
0
0
0
0
0
0
0
0
0
0
0
0
0
0
0
0
0
0
0
0
0
0
0
0
0
0
0
0
0
0
0
0
0
0
0
0
0
0
0
0
0
0
0
0
0
0
0
0
0
0
0
0
0
0
0
0
0
0
0
0
0
0
0
0
0
0
0
0
0
0
0
0
0
0
0
0
0
0
0
0
0
0
0
0
0
0
0
0
0
0
0
0
0
0
0
0
0
0
0
0
0
0
0
0
0
0
0
0
0
0
0
0
0
0
0
0
0
0
0
0
0
0
0
0
0
0
0
0
0
0
0
0
0
0
0
0
0
0
0
0
0
0
0
0
0
0
0
0
0
0
0
0
0
0
0
0
0
0
0
0
0
0
0
0
0
0
0
0
0
0
0
0
0
0
0
0
0
0
0
0
0
0
0
0
0
0
0
0
0
0
0
0
0
0
0
0
0
0
0
0
0
0
0
0
0
0
0
0
0
0
0
0
0
0
0
0
0
0
0
0
0
0
0
0
0
0
0
0
0
0
0
0
0
0
0
0
0
0
0
0
0
0
0
0
0
0
0
0
0
0
0
0
0
0
0
0
0
0
0
0
0
0
0
0
0
0
0
0
0
0
0
0
0
0
0
0
0
0
0
0
0
0
0
0
0
0
0
0
0
0
0
0
0
0
0
0
0
0
0
0
0
0
0
0
0
0
0
0
0
0
0
0
0
0
0
0
0
0
0
0
0
0
0
0
0
0
0
0
0
0
0
0
0
0
0
0
0
0
0
0
0
0
0
0
SCALARS rhs double 1
LOOKUP_TABLE default
-5.50799
-5.70416
-5.77091
-5.84783
-5.95222
-6.08712
-6.25298
-6.44367
-6.64095
-6.81046
-6.90464
-6.87932
-6.71086
-6.41107
-6.04428
-5.72679
-5.46786
-5.28103
-5.18325
-5.12546
-5.11997
-5.14184
-5.17287
-5.41886
2.71768
0
0
0
0
0
0
0
0
0
0
0
0
0
0
0
0
0
0
0
0
0
0
0
0
0
-0.526832
-0.702236
-0.753789
-0.813932
-0.899007
-1.01266
-1.15627
-1.32522
-1.50145
-1.6478
-1.7131
-1.65605
-1.45857
-1.12501
-0.72113
-0.433784
-0.213586
-0.0653079
-0.0294397
0.0217318
0.124913
0.0388829
-0.278194
4.25551
1.28584
0
0
0
0
0
0
0
0
0
0
0
0
0
0
0
0
0
0
0
0
0
0
0
0
0
-0.522117
-0.680811
-0.728427
-0.785924
-0.869171
-0.98331
-1.13226
-1.31278
-1.50167
-1.64653
-1.67665
-1.54977
-1.26283
-0.797325
-0.263658
-0.0270461
0.176938
0.454031
0.28892
0.0872235
13.065
6.15725
2.71768
0
0
0
0
0
0
0
0
0
0
0
0
0
0
0
0
0
0
0
0
0
0
0
0
0
0
0
-0.495364
-0.635341
-0.678898
-0.733206
-0.813588
-0.927333
-1.08272
-1.27888
-1.48271
-1.61283
-1.56586
-1.30136
-0.867369
-0.145344
0.745875
0.635853
0.608363
18.1093
10.6393
4.25551
0
0
0
0
0
0
0
0
0
0
0
0
0
0
0
0
0
0
0
0
0
0
0
0
0
0
0
0
0
0
-0.461995
-0.581018
-0.619237
-0.6681
-0.741651
-0.849481
-1.0059
-1.2157
-1.42662
-1.50905
-1.31882
-0.796637
-0.133372
1.37614
26.7852
18.1093
6.15725
0
0
0
0
0
0
0
0
0
0
0
0
0
0
0
0
0
0
0
0
0
0
0
0
0
0
0
0
0
0
0
0
0
-0.427527
-0.523889
-0.555957
-0.596471
-0.658104
-0.74903
-0.891142
-1.1061
-1.2986
-1.28579
-0.890718
0.490423
1.44076
22.8472
0
0
0
0
0
0
0
0
0
0
0
0
0
0
0
0
0
0
0
0
0
0
0
0
0
0
0
0
0
0
0
0
0
0
0
0
-0.398342
-0.471496
-0.497031
-0.5253
-0.573474
-0.628997
-0.737815
-0.934128
-1.04727
-0.959672
0.388802
4.12608
24.8814
0
0
0
0
0
0
0
0
0
0
0
0
0
0
0
0
0
0
0
0
0
0
0
0
0
0
0
0
0
0
0
0
0
0
0
0
0
-0.379151
-0.432462
-0.455493
-0.453447
-0.502008
-0.509333
-0.583389
-0.149627
-0.102942
0.0176798
3.77145
27.2717
0
0
0
0
0
0
0
0
0
0
0
0
0
0
0
0
0
0
0
0
0
0
0
0
0
0
0
0
0
0
0
0
0
0
0
0
0
0
0.103522
0.0605951
0.0417971
0.105688
0.0932236
0.0688178
0.133097
1.49289
2.91311
7.07465
41.2731
0
0
0
0
0
0
0
0
0
0
0
0
0
0
0
0
0
0
0
0
0
0
0
0
0
0
0
0
0
0
0
0
0
0
0
0
0
0
0
1.52608
1.49041
1.63904
2.85664
2.91137
4.71474
9.09454
10.208
11.1703
21.7759
3.2041
0
0
0
0
0
0
0
0
0
0
0
0
0
0
0
0
0
0
0
0
0
0
0
0
0
0
0
0
0
0
0
0
0
0
0
0
0
0
0
7.92952
10.0992
10.1145
8.86149
11.2589
12.4355
10.8064
8.57914
8.60392
43.2779
0
0
0
0
0
0
0
0
0
0
0
0
0
0
0
0
0
0
0
0
0
0
0
0
0
0
0
0
0
0
0
0
0
0
0
0
0
0
0
0
13.2058
10.8439
11.0393
13.0106
10.7272
10.2862
9.48307
9.57063
8.67562
33.2233
0
0
0
0
0
0
0
0
0
0
0
0
0
0
0
0
0
0
0
0
0
0
0
0
0
0
0
0
0
0
0
0
0
0
0
0
0
0
0
0
8.71388
9.82855
9.83715
7.65861
8.9401
7.02241
6.34758
6.44313
5.90605
26.1906
0
0
0
0
0
0
0
0
0
0
0
0
0
0
0
0
0
0
0
0
0
0
0
0
0
0
0
0
0
0
0
0
0
0
0
0
0
0
0
0
7.061
5.55892
5.71513
6.83869
5.56628
5.6724
5.42452
5.43401
4.26976
17.1298
0
0
0
0
0
0
0
0
0
0
0
0
0
0
0
0
0
0
0
0
0
0
0
0
0
0
0
0
0
0
0
0
0
0
0
0
0
0
0
0
6.55202
6.55536
6.55982
5.31204
5.40986
6.30896
5.08555
5.09432
5.2091
10.3371
0
0
0
0
0
0
0
0
0
0
0
0
0
0
0
0
0
0
0
0
0
0
0
0
0
0
0
0
0
0
0
0
0
0
0
0
0
0
0
0
5.52783
5.53996
5.54196
5.54121
5.54439
4.52522
5.16545
5.22779
16.4546
0
0
0
0
0
0
0
0
0
0
0
0
0
0
0
0
0
0
0
0
0
0
0
0
0
0
0
0
0
0
0
0
0
0
0
0
0
0
0
0
0
3.60674
3.66202
3.98033
3.98143
3.98244
3.98396
3.23505
3.31189
11.5415
0
0
0
0
0
0
0
0
0
0
0
0
0
0
0
0
0
0
0
0
0
0
0
0
0
0
0
0
0
0
0
0
0
0
0
0
0
0
0
0
0
6.01719
6.36025
5.75447
5.75462
5.75506
5.75536
5.75588
5.76119
8.30564
0
0
0
0
0
0
0
0
0
0
0
0
0
0
0
0
0
0
0
0
0
0
0
0
0
0
0
0
0
0
0
0
0
0
0
0
0
0
0
0
0
3.29611
2.74112
2.74112
2.74112
2.74112
2.74112
2.74112
2.74112
2.74112
0
0
0
0
0
0
0
0
0
0
0
0
0
0
0
0
0
0
0
0
0
0
0
0
0
0
0
0
0
0
0
0
0
0
0
0
0
0
0
0
0
0
0
0
0
0
0
0
0
0
0
0
0
0
0
0
0
0
0
0
0
0
0
0
0
0
0
0
0
0
0
0
0
0
0
0
0
0
0
0
0
0
0
0
0
0
0
0
0
0
0
