# vtk DataFile Version 4.0
Nusif Fluid VTK output
ASCII
DATASET STRUCTURED_POINTS
DIMENSIONS 50 20 1
ORIGIN 0 0 0 
SPACING 0.2 0.2 1
POINT_DATA 1000 

VECTORS velocity double
0.0527026 -0.0638557  0
0.159593 -0.064656  0
0.269694 -0.066321  0
0.384101 -0.0688402  0
0.504492 -0.0721829  0
0.632435 -0.0762696  0
0.769301 -0.0809853  0
0.91598 -0.085966  0
1.07239 -0.0906067  0
1.23713 -0.0941895  0
1.40699 -0.0956193  0
1.57637 -0.093631  0
1.73775 -0.0875351  0
1.88291 -0.0773486  0
2.0045 -0.0639116  0
2.09736 -0.048572  0
2.15974 -0.0334072  0
2.19265 -0.0190743  0
2.19935 -0.00717764  0
2.18687 0.000108423  0
2.15808 0.00913552  0
2.15169 -0.0125136  0
1.0821 0.0233833  0
0 0  0
0 0  0
0 0  0
0 0  0
0 0  0
0 0  0
0 0  0
0 0  0
0 0  0
0 0  0
0 0  0
0 0  0
0 0  0
0 0  0
0 0  0
0 0  0
0 0  0
0 0  0
0 0  0
0 0  0
0 0  0
0 0  0
0 0  0
0 0  0
0 0  0
0 0  0
0 0  0
0.051853 -0.190023  0
0.156988 -0.192462  0
0.265244 -0.197471  0
0.377732 -0.205038  0
0.496172 -0.215122  0
0.622266 -0.227528  0
0.757449 -0.241793  0
0.902493 -0.256761  0
1.05739 -0.270871  0
1.22076 -0.281657  0
1.38902 -0.285775  0
1.55617 -0.279421  0
1.71393 -0.260203  0
1.85275 -0.22791  0
1.96501 -0.186393  0
2.04687 -0.139957  0
2.09832 -0.0949684  0
2.12417 -0.0553724  0
2.12694 -0.0194289  0
2.11778 -0.00508266  0
2.10286 0.0287212  0
2.09241 -0.0250272  0
1.04621 0.0108697  0
0 0  0
0 0  0
0 0  0
0 0  0
0 0  0
0 0  0
0 0  0
0 0  0
0 0  0
0 0  0
0 0  0
0 0  0
0 0  0
0 0  0
0 0  0
0 0  0
0 0  0
0 0  0
0 0  0
0 0  0
0 0  0
0 0  0
0 0  0
0 0  0
0 0  0
0 0  0
0 0  0
0.05016 -0.312882  0
0.151803 -0.316945  0
0.256418 -0.325273  0
0.365228 -0.337902  0
0.479986 -0.354778  0
0.602336 -0.375594  0
0.733732 -0.39954  0
0.875346 -0.424864  0
1.02753 -0.449013  0
1.18871 -0.467182  0
1.35453 -0.473423  0
1.5177 -0.461164  0
1.6681 -0.42567  0
1.79404 -0.366248  0
1.88644 -0.291745  0
1.94631 -0.215364  0
1.97509 -0.138822  0
1.98461 -0.085932  0
1.98542 -0.0217441  0
1.98266 -0.0103822  0
2.06964 0.0143946  0
2.12451 -0.0125136  0
1.04621 -0.0125136  0
0 0  0
0 0  0
0 0  0
0 0  0
0 0  0
0 0  0
0 0  0
0 0  0
0 0  0
0 0  0
0 0  0
0 0  0
0 0  0
0 0  0
0 0  0
0 0  0
0 0  0
0 0  0
0 0  0
0 0  0
0 0  0
0 0  0
0 0  0
0 0  0
0 0  0
0 0  0
0 0  0
0.0476152 -0.431353  0
0.144117 -0.436998  0
0.243489 -0.448554  0
0.346842 -0.466088  0
0.455808 -0.489581  0
0.572233 -0.518792  0
0.69802 -0.552716  0
0.834706 -0.589143  0
0.982642 -0.623981  0
1.1398 -0.64964  0
1.30051 -0.656556  0
1.45584 -0.635572  0
1.59429 -0.579137  0
1.70247 -0.485921  0
1.76348 -0.364476  0
1.79125 -0.269285  0
1.79942 -0.151113  0
1.79601 -0.0992678  0
1.88504 -0.0591267  0
1.97836 -0.00519108  0
0.991332 -0.00519108  0
0 0  0
0 0  0
0 0  0
0 0  0
0 0  0
0 0  0
0 0  0
0 0  0
0 0  0
0 0  0
0 0  0
0 0  0
0 0  0
0 0  0
0 0  0
0 0  0
0 0  0
0 0  0
0 0  0
0 0  0
0 0  0
0 0  0
0 0  0
0 0  0
0 0  0
0 0  0
0 0  0
0 0  0
0 0  0
0.0443722 -0.54388  0
0.134254 -0.551042  0
0.226659 -0.565567  0
0.322616 -0.58763  0
0.423857 -0.617458  0
0.532352 -0.655013  0
0.650175 -0.699252  0
0.779342 -0.747576  0
0.920563 -0.793791  0
1.071 -0.826484  0
1.22187 -0.830324  0
1.36139 -0.79567  0
1.47812 -0.71322  0
1.55947 -0.580348  0
1.58549 -0.386306  0
1.58137 -0.290611  0
1.66447 -0.219158  0
1.77179 -0.0496339  0
0.898005 -0.0496339  0
0 0  0
0 0  0
0 0  0
0 0  0
0 0  0
0 0  0
0 0  0
0 0  0
0 0  0
0 0  0
0 0  0
0 0  0
0 0  0
0 0  0
0 0  0
0 0  0
0 0  0
0 0  0
0 0  0
0 0  0
0 0  0
0 0  0
0 0  0
0 0  0
0 0  0
0 0  0
0 0  0
0 0  0
0 0  0
0 0  0
0 0  0
0.0404943 -0.649128  0
0.122384 -0.657563  0
0.206354 -0.674637  0
0.293371 -0.700719  0
0.384949 -0.736346  0
0.482967 -0.781768  0
0.58988 -0.836336  0
0.708409 -0.897267  0
0.839665 -0.955631  0
0.979268 -0.993713  0
1.11258 -0.986287  0
1.22288 -0.928515  0
1.29783 -0.81103  0
1.32496 -0.620227  0
1.40738 -0.501207  0
1.53558 -0.145306  0
0.790686 -0.145306  0
0 0  0
0 0  0
0 0  0
0 0  0
0 0  0
0 0  0
0 0  0
0 0  0
0 0  0
0 0  0
0 0  0
0 0  0
0 0  0
0 0  0
0 0  0
0 0  0
0 0  0
0 0  0
0 0  0
0 0  0
0 0  0
0 0  0
0 0  0
0 0  0
0 0  0
0 0  0
0 0  0
0 0  0
0 0  0
0 0  0
0 0  0
0 0  0
0 0  0
0.0361416 -0.745986  0
0.10913 -0.755388  0
0.18369 -0.774496  0
0.260486 -0.803803  0
0.340673 -0.844135  0
0.425776 -0.896186  0
0.518355 -0.960475  0
0.622114 -1.03446  0
0.739011 -1.10562  0
0.862634 -1.14596  0
0.969513 -1.11322  0
1.03652 -1.01785  0
1.05855 -0.847891  0
1.19175 -0.734059  0
0.662479 -0.310113  0
0 0  0
0 0  0
0 0  0
0 0  0
0 0  0
0 0  0
0 0  0
0 0  0
0 0  0
0 0  0
0 0  0
0 0  0
0 0  0
0 0  0
0 0  0
0 0  0
0 0  0
0 0  0
0 0  0
0 0  0
0 0  0
0 0  0
0 0  0
0 0  0
0 0  0
0 0  0
0 0  0
0 0  0
0 0  0
0 0  0
0 0  0
0 0  0
0 0  0
0 0  0
0 0  0
0.0317101 -0.833903  0
0.0955228 -0.843889  0
0.160377 -0.864507  0
0.226582 -0.895872  0
0.294618 -0.93935  0
0.364984 -0.995484  0
0.43978 -1.06758  0
0.524169 -1.15452  0
0.620907 -1.23819  0
0.721864 -1.27694  0
0.79308 -1.1993  0
0.8147 -1.04962  0
0.936625 -0.948753  0
0.529275 -0.423945  0
0 0  0
0 0  0
0 0  0
0 0  0
0 0  0
0 0  0
0 0  0
0 0  0
0 0  0
0 0  0
0 0  0
0 0  0
0 0  0
0 0  0
0 0  0
0 0  0
0 0  0
0 0  0
0 0  0
0 0  0
0 0  0
0 0  0
0 0  0
0 0  0
0 0  0
0 0  0
0 0  0
0 0  0
0 0  0
0 0  0
0 0  0
0 0  0
0 0  0
0 0  0
0 0  0
0 0  0
0.0275699 -0.913097  0
0.0829947 -0.923373  0
0.139186 -0.945115  0
0.19591 -0.977226  0
0.253143 -1.02228  0
0.309288 -1.07807  0
0.364112 -1.15362  0
0.42465 -1.25241  0
0.494797 -1.34618  0
0.565509 -1.3796  0
0.599088 -1.23065  0
0.706894 -1.14013  0
0.40735 -0.524808  0
0 0  0
0 0  0
0 0  0
0 0  0
0 0  0
0 0  0
0 0  0
0 0  0
0 0  0
0 0  0
0 0  0
0 0  0
0 0  0
0 0  0
0 0  0
0 0  0
0 0  0
0 0  0
0 0  0
0 0  0
0 0  0
0 0  0
0 0  0
0 0  0
0 0  0
0 0  0
0 0  0
0 0  0
0 0  0
0 0  0
0 0  0
0 0  0
0 0  0
0 0  0
0 0  0
0 0  0
0 0  0
0.0243401 -0.984777  0
0.0734145 -0.995464  0
0.123222 -1.01802  0
0.173817 -1.05063  0
0.226475 -1.09775  0
0.271333 -1.14257  0
0.3083 -1.21987  0
0.346871 -1.32423  0
0.385252 -1.42186  0
0.431621 -1.45023  0
0.529011 -1.29506  0
0.299544 -0.615326  0
0 0  0
0 0  0
0 0  0
0 0  0
0 0  0
0 0  0
0 0  0
0 0  0
0 0  0
0 0  0
0 0  0
0 0  0
0 0  0
0 0  0
0 0  0
0 0  0
0 0  0
0 0  0
0 0  0
0 0  0
0 0  0
0 0  0
0 0  0
0 0  0
0 0  0
0 0  0
0 0  0
0 0  0
0 0  0
0 0  0
0 0  0
0 0  0
0 0  0
0 0  0
0 0  0
0 0  0
0 0  0
0 0  0
0.0229708 -1.05172  0
0.0689662 -1.0627  0
0.115801 -1.08639  0
0.165126 -1.12115  0
0.218001 -1.17172  0
0.261735 -1.1864  0
0.29873 -1.26947  0
0.330544 -1.3645  0
0.341302 -1.45023  0
0.340866 -1.47754  0
0.170433 -1.41851  0
0 0  0
0 0  0
0 0  0
0 0  0
0 0  0
0 0  0
0 0  0
0 0  0
0 0  0
0 0  0
0 0  0
0 0  0
0 0  0
0 0  0
0 0  0
0 0  0
0 0  0
0 0  0
0 0  0
0 0  0
0 0  0
0 0  0
0 0  0
0 0  0
0 0  0
0 0  0
0 0  0
0 0  0
0 0  0
0 0  0
0 0  0
0 0  0
0 0  0
0 0  0
0 0  0
0 0  0
0 0  0
0 0  0
0 0  0
0.0237289 -1.10821  0
0.0729462 -1.12095  0
0.121331 -1.14283  0
0.159501 -1.17168  0
0.174775 -1.20881  0
0.270105 -1.20579  0
0.385191 -0.645048  0
0.410391 -0.687846  0
0.392227 -0.724895  0
0.354742 -0.738771  0
0.170433 -0.738771  0
0 0  0
0 0  0
0 0  0
0 0  0
0 0  0
0 0  0
0 0  0
0 0  0
0 0  0
0 0  0
0 0  0
0 0  0
0 0  0
0 0  0
0 0  0
0 0  0
0 0  0
0 0  0
0 0  0
0 0  0
0 0  0
0 0  0
0 0  0
0 0  0
0 0  0
0 0  0
0 0  0
0 0  0
0 0  0
0 0  0
0 0  0
0 0  0
0 0  0
0 0  0
0 0  0
0 0  0
0 0  0
0 0  0
0 0  0
0.0309811 -0.565968  0
0.0898416 -0.57322  0
0.141586 -0.582863  0
0.181042 -0.593475  0
0.185704 -0.604404  0
0.0873875 -0.604404  0
0 0  0
0 0  0
0 0  0
0 0  0
0 0  0
0 0  0
0 0  0
0 0  0
0 0  0
0 0  0
0 0  0
0 0  0
0 0  0
0 0  0
0 0  0
0 0  0
0 0  0
0 0  0
0 0  0
0 0  0
0 0  0
0 0  0
0 0  0
0 0  0
0 0  0
0 0  0
0 0  0
0 0  0
0 0  0
0 0  0
0 0  0
0 0  0
0 0  0
0 0  0
0 0  0
0 0  0
0 0  0
0 0  0
0 0  0
0 0  0
0 0  0
0 0  0
0 0  0
0 0  0
0 0  0
0 0  0
0 0  0
0 0  0
0 0  0
0 0  0
0 0  0
0 0  0
0 0  0
0 0  0
0 0  0
0 0  0
0 0  0
0 0  0
0 0  0
0 0  0
0 0  0
0 0  0
0 0  0
0 0  0
0 0  0
0 0  0
0 0  0
0 0  0
0 0  0
0 0  0
0 0  0
0 0  0
0 0  0
0 0  0
0 0  0
0 0  0
0 0  0
0 0  0
0 0  0
0 0  0
0 0  0
0 0  0
0 0  0
0 0  0
0 0  0
0 0  0
0 0  0
0 0  0
0 0  0
0 0  0
0 0  0
0 0  0
0 0  0
0 0  0
0 0  0
0 0  0
0 0  0
0 0  0
0 0  0
0 0  0
0 0  0
0 0  0
0 0  0
0 0  0
0 0  0
0 0  0
0 0  0
0 0  0
0 0  0
0 0  0
0 0  0
0 0  0
0 0  0
0 0  0
0 0  0
0 0  0
0 0  0
0 0  0
0 0  0
0 0  0
0 0  0
0 0  0
0 0  0
0 0  0
0 0  0
0 0  0
0 0  0
0 0  0
0 0  0
0 0  0
0 0  0
0 0  0
0 0  0
0 0  0
0 0  0
0 0  0
0 0  0
0 0  0
0 0  0
0 0  0
0 0  0
0 0  0
0 0  0
0 0  0
0 0  0
0 0  0
0 0  0
0 0  0
0 0  0
0 0  0
0 0  0
0 0  0
0 0  0
0 0  0
0 0  0
0 0  0
0 0  0
0 0  0
0 0  0
0 0  0
0 0  0
0 0  0
0 0  0
0 0  0
0 0  0
0 0  0
0 0  0
0 0  0
0 0  0
0 0  0
0 0  0
0 0  0
0 0  0
0 0  0
0 0  0
0 0  0
0 0  0
0 0  0
0 0  0
0 0  0
0 0  0
0 0  0
0 0  0
0 0  0
0 0  0
0 0  0
0 0  0
0 0  0
0 0  0
0 0  0
0 0  0
0 0  0
0 0  0
0 0  0
0 0  0
0 0  0
0 0  0
0 0  0
0 0  0
0 0  0
0 0  0
0 0  0
0 0  0
0 0  0
0 0  0
0 0  0
0 0  0
0 0  0
0 0  0
0 0  0
0 0  0
0 0  0
0 0  0
0 0  0
0 0  0
0 0  0
0 0  0
0 0  0
0 0  0
0 0  0
0 0  0
0 0  0
0 0  0
0 0  0
0 0  0
0 0  0
0 0  0
0 0  0
0 0  0
0 0  0
0 0  0
0 0  0
0 0  0
0 0  0
0 0  0
0 0  0
0 0  0
0 0  0
0 0  0
0 0  0
0 0  0
0 0  0
0 0  0
0 0  0
0 0  0
0 0  0
0 0  0
0 0  0
0 0  0
0 0  0
0 0  0
0 0  0
0 0  0
0 0  0
0 0  0
0 0  0
0 0  0
0 0  0
0 0  0
0 0  0
0 0  0
0 0  0
0 0  0
0 0  0
0 0  0
0 0  0
0 0  0
0 0  0
0 0  0
0 0  0
0 0  0
0 0  0
0 0  0
0 0  0
0 0  0
0 0  0
0 0  0
0 0  0
0 0  0
0 0  0
0 0  0
0 0  0
0 0  0
0 0  0
0 0  0
0 0  0
0 0  0
0 0  0
0 0  0
0 0  0
0 0  0
0 0  0
0 0  0
0 0  0
0 0  0
0 0  0
0 0  0
0 0  0
0 0  0
0 0  0
0 0  0
0 0  0
0 0  0
0 0  0
0 0  0
0 0  0
0 0  0
0 0  0
0 0  0
0 0  0
0 0  0
0 0  0
0 0  0
0 0  0
0 0  0
0 0  0
0 0  0
0 0  0
0 0  0
0 0  0
0 0  0
0 0  0
0 0  0
0 0  0
0 0  0
0 0  0
0 0  0
0 0  0
0 0  0
0 0  0
0 0  0
0 0  0
0 0  0
0 0  0
0 0  0
0 0  0
0 0  0
0 0  0
0 0  0
0 0  0
0 0  0
0 0  0
0 0  0
0 0  0
0 0  0
0 0  0
0 0  0
0 0  0
0 0  0
0 0  0
0 0  0
0 0  0
0 0  0
0 0  0
0 0  0
0 0  0
0 0  0
0 0  0
0 0  0
0 0  0
0 0  0
0 0  0
0 0  0
0 0  0
0 0  0
0 0  0
0 0  0
0 0  0
0 0  0
0 0  0
0 0  0
0 0  0
0 0  0
0 0  0
0 0  0
0 0  0
0 0  0
0 0  0
0 0  0
0 0  0
0 0  0
0 0  0
0 0  0
0 0  0
0 0  0
0 0  0
0 0  0
0 0  0
0 0  0
0 0  0
0 0  0
0 0  0
0 0  0
0 0  0

SCALARS pressure double 1
LOOKUP_TABLE default
3.2321
3.22928
3.21633
3.19215
3.15458
3.10054
3.02604
2.92657
2.79296
2.6238
2.41534
2.17101
1.89797
1.61176
1.33289
1.07525
0.847971
0.653474
0.485698
0.339209
0.186703
0
0
0
0
0
0
0
0
0
0
0
0
0
0
0
0
0
0
0
0
0
0
0
0
0
0
0
0
0
3.00673
3.00335
2.98964
2.96494
2.92723
2.87315
2.79822
2.69507
2.55727
2.38254
2.16886
1.91606
1.63832
1.35098
1.07303
0.822033
0.602932
0.420089
0.258954
0.138374
0
-0.0085404
0
0
0
0
0
0
0
0
0
0
0
0
0
0
0
0
0
0
0
0
0
0
0
0
0
0
0
0
2.75765
2.75358
2.73999
2.71597
2.67846
2.62316
2.54432
2.43493
2.29217
2.10958
1.88654
1.62365
1.33551
1.04164
0.763893
0.528478
0.321165
0.166905
0.00235125
-0.0586582
0
0
0
0
0
0
0
0
0
0
0
0
0
0
0
0
0
0
0
0
0
0
0
0
0
0
0
0
0
0
2.48719
2.48404
2.4716
2.447
2.40669
2.34745
2.26459
2.15201
2.00404
1.812
1.57437
1.29786
0.99528
0.690494
0.41143
0.217961
0.0144617
-0.0690957
0
0
0
0
0
0
0
0
0
0
0
0
0
0
0
0
0
0
0
0
0
0
0
0
0
0
0
0
0
0
0
0
2.20014
2.19813
2.18382
2.1556
2.11277
2.05216
1.96703
1.85107
1.69583
1.49314
1.24021
0.948609
0.632591
0.315347
0.0179732
-0.0472209
0
0
0
0
0
0
0
0
0
0
0
0
0
0
0
0
0
0
0
0
0
0
0
0
0
0
0
0
0
0
0
0
0
0
1.90021
1.89476
1.87764
1.84796
1.80328
1.74016
1.65341
1.53592
1.37544
1.16226
0.895386
0.592672
0.2761
-0.0158813
0
0
0
0
0
0
0
0
0
0
0
0
0
0
0
0
0
0
0
0
0
0
0
0
0
0
0
0
0
0
0
0
0
0
0
0
1.5856
1.57893
1.55982
1.52735
1.48007
1.41499
1.32851
1.2121
1.05056
0.830635
0.555052
0.252559
-0.0299798
0
0
0
0
0
0
0
0
0
0
0
0
0
0
0
0
0
0
0
0
0
0
0
0
0
0
0
0
0
0
0
0
0
0
0
0
0
1.26189
1.25355
1.23285
1.19758
1.1462
1.07799
0.994717
0.885916
0.731762
0.512943
0.236131
-0.0340512
0
0
0
0
0
0
0
0
0
0
0
0
0
0
0
0
0
0
0
0
0
0
0
0
0
0
0
0
0
0
0
0
0
0
0
0
0
0
0.931905
0.922872
0.900782
0.8627
0.804915
0.728119
0.652278
0.562644
0.432246
0.229662
-0.0216739
0
0
0
0
0
0
0
0
0
0
0
0
0
0
0
0
0
0
0
0
0
0
0
0
0
0
0
0
0
0
0
0
0
0
0
0
0
0
0
0.597633
0.589434
0.568388
0.529534
0.46236
0.354944
0.296362
0.245909
0.170099
0.0409352
0
0
0
0
0
0
0
0
0
0
0
0
0
0
0
0
0
0
0
0
0
0
0
0
0
0
0
0
0
0
0
0
0
0
0
0
0
0
0
0
0.259255
0.254413
0.239281
0.209646
0.143522
-0.0419973
-0.0421292
-0.019848
-0.00602811
-0.0500453
0
0
0
0
0
0
0
0
0
0
0
0
0
0
0
0
0
0
0
0
0
0
0
0
0
0
0
0
0
0
0
0
0
0
0
0
0
0
0
0
-0.0470627
-0.0437043
-0.0482973
-0.0455793
-0.0198334
0
0
0
0
0
0
0
0
0
0
0
0
0
0
0
0
0
0
0
0
0
0
0
0
0
0
0
0
0
0
0
0
0
0
0
0
0
0
0
0
0
0
0
0
0
0
0
0
0
0
0
0
0
0
0
0
0
0
0
0
0
0
0
0
0
0
0
0
0
0
0
0
0
0
0
0
0
0
0
0
0
0
0
0
0
0
0
0
0
0
0
0
0
0
0
0
0
0
0
0
0
0
0
0
0
0
0
0
0
0
0
0
0
0
0
0
0
0
0
0
0
0
0
0
0
0
0
0
0
0
0
0
0
0
0
0
0
0
0
0
0
0
0
0
0
0
0
0
0
0
0
0
0
0
0
0
0
0
0
0
0
0
0
0
0
0
0
0
0
0
0
0
0
0
0
0
0
0
0
0
0
0
0
0
0
0
0
0
0
0
0
0
0
0
0
0
0
0
0
0
0
0
0
0
0
0
0
0
0
0
0
0
0
0
0
0
0
0
0
0
0
0
0
0
0
0
0
0
0
0
0
0
0
0
0
0
0
0
0
0
0
0
0
0
0
0
0
0
0
0
0
0
0
0
0
0
0
0
0
0
0
0
0
0
0
0
0
0
0
0
0
0
0
0
0
0
0
0
0
0
0
0
0
0
0
0
0
0
0
0
0
0
0
0
0
0
0
0
0
0
0
0
0
0
0
0
0
0
0
0
0
0
0
0
0
0
0
0
0
0
0
0
0
0
0
0
0
0
0
0
0
0
0
0
0
0
0
0
0
0
0
0
0
0
0
0
0
0
0
0
0
0
0
0
0
0
0
0
0
0
0
0
0
0
0
0
0
0
0
0
0
0
0
0
0
0
0
0
0
0
0
0
0
0
0
0
0
0
0
0
0
0
0
0
0
0
0
0
0
0
0
0
0
0
0
0
0
0
0
0
0
0
0
0
0
0
0
0
0
0
0
0
0
0
0
0
0
0
0
0
0
0
0
0
0
0
0
0
0
0
0
0
0
0
0
SCALARS rhs double 1
LOOKUP_TABLE default
-6.04995
-6.07622
-6.10683
-6.15904
-6.224
-6.30953
-6.41843
-6.72459
-6.85178
-7.07114
-7.10501
-7.12725
-6.84653
-6.35486
-5.97849
-5.57974
-5.31112
-5.16909
-5.13742
-5.17157
-5.52229
5.04428
0
0
0
0
0
0
0
0
0
0
0
0
0
0
0
0
0
0
0
0
0
0
0
0
0
0
0
0
-0.849448
-0.878195
-0.870202
-0.887351
-0.959898
-1.09857
-1.36709
-1.58942
-1.66325
-1.76917
-1.87466
-1.55916
-1.31763
-0.977189
-0.554837
-0.208462
-0.00930939
0.0496918
0.269081
-0.348877
7.48384
2.44275
0
0
0
0
0
0
0
0
0
0
0
0
0
0
0
0
0
0
0
0
0
0
0
0
0
0
0
0
-0.790028
-0.752163
-0.746433
-0.851819
-1.03119
-1.2404
-1.4164
-1.40799
-1.57391
-1.62723
-1.7413
-1.46284
-1.0758
-0.637458
-0.0208638
0.282284
0.706373
0.174583
11.8164
5.04428
0
0
0
0
0
0
0
0
0
0
0
0
0
0
0
0
0
0
0
0
0
0
0
0
0
0
0
0
0
0
-0.628224
-0.657101
-0.801498
-0.964138
-1.03508
-1.08662
-1.19244
-1.33797
-1.604
-1.6701
-1.51881
-1.23475
-0.61122
0.0489125
1.12116
0.886997
11.8164
5.04428
0
0
0
0
0
0
0
0
0
0
0
0
0
0
0
0
0
0
0
0
0
0
0
0
0
0
0
0
0
0
0
0
-0.487218
-0.754811
-0.817239
-0.778551
-0.8397
-1.03395
-1.17423
-1.33711
-1.48899
-1.55354
-1.22889
-0.771541
0.131327
1.60282
13.7203
5.04428
0
0
0
0
0
0
0
0
0
0
0
0
0
0
0
0
0
0
0
0
0
0
0
0
0
0
0
0
0
0
0
0
0
0
-0.598162
-0.610609
-0.609957
-0.703364
-0.805763
-0.920754
-1.04956
-1.28955
-1.426
-1.35635
-0.777469
0.0566278
1.88357
9.78223
0
0
0
0
0
0
0
0
0
0
0
0
0
0
0
0
0
0
0
0
0
0
0
0
0
0
0
0
0
0
0
0
0
0
0
0
-0.469713
-0.552797
-0.564508
-0.599903
-0.710846
-0.828622
-0.968259
-1.18302
-1.30291
-1.0367
-0.129835
1.8452
11.8164
0
0
0
0
0
0
0
0
0
0
0
0
0
0
0
0
0
0
0
0
0
0
0
0
0
0
0
0
0
0
0
0
0
0
0
0
0
-0.420976
-0.440965
-0.489958
-0.528728
-0.602711
-0.694154
-0.849528
-1.0557
-1.12823
-0.582204
1.7024
16.9243
0
0
0
0
0
0
0
0
0
0
0
0
0
0
0
0
0
0
0
0
0
0
0
0
0
0
0
0
0
0
0
0
0
0
0
0
0
0
-0.370295
-0.391885
-0.403898
-0.444726
-0.501163
-0.552122
-0.67533
-0.849301
-0.863704
1.15305
28.2081
0
0
0
0
0
0
0
0
0
0
0
0
0
0
0
0
0
0
0
0
0
0
0
0
0
0
0
0
0
0
0
0
0
0
0
0
0
0
0
-0.327402
-0.354315
-0.356383
-0.368925
-0.405061
0.636312
0.646519
0.647107
0.822981
14.8681
3.2041
0
0
0
0
0
0
0
0
0
0
0
0
0
0
0
0
0
0
0
0
0
0
0
0
0
0
0
0
0
0
0
0
0
0
0
0
0
0
0
0.67704
0.674139
0.684039
0.71264
0.911619
3.62601
6.02605
6.15347
8.60392
43.2779
0
0
0
0
0
0
0
0
0
0
0
0
0
0
0
0
0
0
0
0
0
0
0
0
0
0
0
0
0
0
0
0
0
0
0
0
0
0
0
0
8.42549
8.41822
8.61365
10.585
10.7272
10.2862
9.48307
9.57063
8.67562
33.2233
0
0
0
0
0
0
0
0
0
0
0
0
0
0
0
0
0
0
0
0
0
0
0
0
0
0
0
0
0
0
0
0
0
0
0
0
0
0
0
0
8.71388
9.82855
9.83715
7.65861
8.9401
7.02241
6.34758
6.44313
5.90605
26.1906
0
0
0
0
0
0
0
0
0
0
0
0
0
0
0
0
0
0
0
0
0
0
0
0
0
0
0
0
0
0
0
0
0
0
0
0
0
0
0
0
7.061
5.55892
5.71513
6.83869
5.56628
5.6724
5.42452
5.43401
4.26976
17.1298
0
0
0
0
0
0
0
0
0
0
0
0
0
0
0
0
0
0
0
0
0
0
0
0
0
0
0
0
0
0
0
0
0
0
0
0
0
0
0
0
6.55202
6.55536
6.55982
5.31204
5.40986
6.30896
5.08555
5.09432
5.2091
10.3371
0
0
0
0
0
0
0
0
0
0
0
0
0
0
0
0
0
0
0
0
0
0
0
0
0
0
0
0
0
0
0
0
0
0
0
0
0
0
0
0
5.52783
5.53996
5.54196
5.54121
5.54439
4.52522
5.16545
5.22779
16.4546
0
0
0
0
0
0
0
0
0
0
0
0
0
0
0
0
0
0
0
0
0
0
0
0
0
0
0
0
0
0
0
0
0
0
0
0
0
0
0
0
0
3.60674
3.66202
3.98033
3.98143
3.98244
3.98396
3.23505
3.31189
11.5415
0
0
0
0
0
0
0
0
0
0
0
0
0
0
0
0
0
0
0
0
0
0
0
0
0
0
0
0
0
0
0
0
0
0
0
0
0
0
0
0
0
6.01719
6.36025
5.75447
5.75462
5.75506
5.75536
5.75588
5.76119
8.30564
0
0
0
0
0
0
0
0
0
0
0
0
0
0
0
0
0
0
0
0
0
0
0
0
0
0
0
0
0
0
0
0
0
0
0
0
0
0
0
0
0
3.29611
2.74112
2.74112
2.74112
2.74112
2.74112
2.74112
2.74112
2.74112
0
0
0
0
0
0
0
0
0
0
0
0
0
0
0
0
0
0
0
0
0
0
0
0
0
0
0
0
0
0
0
0
0
0
0
0
0
0
0
0
0
0
0
0
0
0
0
0
0
0
0
0
0
0
0
0
0
0
0
0
0
0
0
0
0
0
0
0
0
0
0
0
0
0
0
0
0
0
0
0
0
0
0
0
0
0
0
0
0
0
0
