# vtk DataFile Version 4.0
Nusif Fluid VTK output
ASCII
DATASET STRUCTURED_POINTS
DIMENSIONS 50 20 1
ORIGIN 0 0 0 
SPACING 0.2 0.2 1
POINT_DATA 1000 

VECTORS velocity double
0.0546825 -0.06013  0
0.16482 -0.0609345  0
0.277298 -0.0625505  0
0.393727 -0.0649919  0
0.515677 -0.0682055  0
0.644646 -0.0722079  0
0.781996 -0.0767013  0
0.92862 -0.0814963  0
1.08439 -0.0861617  0
1.24802 -0.0890752  0
1.41519 -0.0892604  0
1.57793 -0.0846209  0
1.72545 -0.0738948  0
1.84543 -0.0569912  0
1.92626 -0.0346625  0
1.96369 -0.0135626  0
1.96217 0.00432221  0
1.92996 0.0171243  0
1.90746 0  0
0.953728 0  0
0 0  0
0 0  0
0 0  0
0 0  0
0 0  0
0 0  0
0 0  0
0 0  0
0 0  0
0 0  0
0 0  0
0 0  0
0 0  0
0 0  0
0 0  0
0 0  0
0 0  0
0 0  0
0 0  0
0 0  0
0 0  0
0 0  0
0 0  0
0 0  0
0 0  0
0 0  0
0 0  0
0 0  0
0 0  0
0 0  0
0.0538379 -0.179571  0
0.162277 -0.181929  0
0.273036 -0.186736  0
0.387639 -0.193923  0
0.507556 -0.20349  0
0.634468 -0.215139  0
0.769658 -0.228635  0
0.913676 -0.242903  0
1.06707 -0.25637  0
1.22807 -0.265339  0
1.39174 -0.265628  0
1.54992 -0.250967  0
1.69096 -0.217795  0
1.80263 -0.16639  0
1.87356 -0.0986177  0
1.89971 -0.0347261  0
1.9045 0.000704525  0
1.90706 0.0342485  0
1.90726 0.0171243  0
0.953728 0  0
0 0  0
0 0  0
0 0  0
0 0  0
0 0  0
0 0  0
0 0  0
0 0  0
0 0  0
0 0  0
0 0  0
0 0  0
0 0  0
0 0  0
0 0  0
0 0  0
0 0  0
0 0  0
0 0  0
0 0  0
0 0  0
0 0  0
0 0  0
0 0  0
0 0  0
0 0  0
0 0  0
0 0  0
0 0  0
0 0  0
0.052192 -0.296582  0
0.157371 -0.300439  0
0.26481 -0.3083  0
0.37583 -0.320019  0
0.492181 -0.335518  0
0.615255 -0.354574  0
0.746261 -0.376645  0
0.886028 -0.400359  0
1.03483 -0.42232  0
1.19078 -0.437382  0
1.3485 -0.436708  0
1.49816 -0.409273  0
1.62514 -0.349001  0
1.71733 -0.260468  0
1.76933 -0.148933  0
1.77153 -0.0288516  0
1.75806 -0.00723538  0
1.83256 0.0135066  0
0.953531 0.0171243  0
0 0  0
0 0  0
0 0  0
0 0  0
0 0  0
0 0  0
0 0  0
0 0  0
0 0  0
0 0  0
0 0  0
0 0  0
0 0  0
0 0  0
0 0  0
0 0  0
0 0  0
0 0  0
0 0  0
0 0  0
0 0  0
0 0  0
0 0  0
0 0  0
0 0  0
0 0  0
0 0  0
0 0  0
0 0  0
0 0  0
0 0  0
0.0498187 -0.409631  0
0.150244 -0.414959  0
0.252761 -0.425663  0
0.358868 -0.441496  0
0.470109 -0.462523  0
0.587661 -0.488946  0
0.712522 -0.519603  0
0.845851 -0.552639  0
0.988128 -0.582955  0
1.13706 -0.603248  0
1.2866 -0.599811  0
1.42433 -0.554973  0
1.5297 -0.457117  0
1.58974 -0.32596  0
1.60822 -0.169956  0
1.67907 -0.092666  0
1.75399 -0.00361769  0
0.879029 -0.00361769  0
0 0  0
0 0  0
0 0  0
0 0  0
0 0  0
0 0  0
0 0  0
0 0  0
0 0  0
0 0  0
0 0  0
0 0  0
0 0  0
0 0  0
0 0  0
0 0  0
0 0  0
0 0  0
0 0  0
0 0  0
0 0  0
0 0  0
0 0  0
0 0  0
0 0  0
0 0  0
0 0  0
0 0  0
0 0  0
0 0  0
0 0  0
0 0  0
0.0467654 -0.517298  0
0.141013 -0.523993  0
0.237425 -0.536974  0
0.337321 -0.556664  0
0.441537 -0.583526  0
0.551317 -0.617181  0
0.668244 -0.655975  0
0.793842 -0.697413  0
0.92783 -0.735743  0
1.06718 -0.760215  0
1.20475 -0.751365  0
1.32466 -0.682332  0
1.40334 -0.535181  0
1.42912 -0.349783  0
1.51867 -0.259869  0
0.804111 -0.0849779  0
0 0  0
0 0  0
0 0  0
0 0  0
0 0  0
0 0  0
0 0  0
0 0  0
0 0  0
0 0  0
0 0  0
0 0  0
0 0  0
0 0  0
0 0  0
0 0  0
0 0  0
0 0  0
0 0  0
0 0  0
0 0  0
0 0  0
0 0  0
0 0  0
0 0  0
0 0  0
0 0  0
0 0  0
0 0  0
0 0  0
0 0  0
0 0  0
0 0  0
0 0  0
0.0430767 -0.618244  0
0.13023 -0.625679  0
0.219238 -0.641177  0
0.310705 -0.664979  0
0.406059 -0.697278  0
0.507217 -0.736949  0
0.615231 -0.783186  0
0.730825 -0.83274  0
0.853898 -0.878502  0
0.980856 -0.905242  0
1.1009 -0.885394  0
1.18663 -0.775402  0
1.21613 -0.566331  0
1.32262 -0.458057  0
0.714561 -0.174891  0
0 0  0
0 0  0
0 0  0
0 0  0
0 0  0
0 0  0
0 0  0
0 0  0
0 0  0
0 0  0
0 0  0
0 0  0
0 0  0
0 0  0
0 0  0
0 0  0
0 0  0
0 0  0
0 0  0
0 0  0
0 0  0
0 0  0
0 0  0
0 0  0
0 0  0
0 0  0
0 0  0
0 0  0
0 0  0
0 0  0
0 0  0
0 0  0
0 0  0
0 0  0
0 0  0
0.0393111 -0.710818  0
0.117772 -0.719646  0
0.197371 -0.737521  0
0.27963 -0.764803  0
0.365706 -0.801203  0
0.4565 -0.846438  0
0.553037 -0.899664  0
0.657069 -0.95715  0
0.767905 -1.00954  0
0.881268 -1.03616  0
0.98277 -0.99733  0
1.02772 -0.810233  0
1.12192 -0.688282  0
0.608063 -0.283166  0
0 0  0
0 0  0
0 0  0
0 0  0
0 0  0
0 0  0
0 0  0
0 0  0
0 0  0
0 0  0
0 0  0
0 0  0
0 0  0
0 0  0
0 0  0
0 0  0
0 0  0
0 0  0
0 0  0
0 0  0
0 0  0
0 0  0
0 0  0
0 0  0
0 0  0
0 0  0
0 0  0
0 0  0
0 0  0
0 0  0
0 0  0
0 0  0
0 0  0
0 0  0
0 0  0
0 0  0
0.0342356 -0.794805  0
0.103318 -0.804758  0
0.17354 -0.82435  0
0.245541 -0.854144  0
0.320474 -0.894053  0
0.399366 -0.944564  0
0.483278 -1.00398  0
0.573661 -1.06859  0
0.670741 -1.12734  0
0.770005 -1.15257  0
0.862468 -1.09088  0
0.966706 -0.860108  0
0.513861 -0.405116  0
0 0  0
0 0  0
0 0  0
0 0  0
0 0  0
0 0  0
0 0  0
0 0  0
0 0  0
0 0  0
0 0  0
0 0  0
0 0  0
0 0  0
0 0  0
0 0  0
0 0  0
0 0  0
0 0  0
0 0  0
0 0  0
0 0  0
0 0  0
0 0  0
0 0  0
0 0  0
0 0  0
0 0  0
0 0  0
0 0  0
0 0  0
0 0  0
0 0  0
0 0  0
0 0  0
0 0  0
0 0  0
0.0293972 -0.869511  0
0.0882985 -0.879748  0
0.147919 -0.900651  0
0.208992 -0.93232  0
0.271959 -0.975291  0
0.337626 -1.02945  0
0.407066 -1.09398  0
0.481777 -1.16513  0
0.562672 -1.23018  0
0.643105 -1.25096  0
0.68157 -1.1341  0
0.340785 -1.02204  0
0 0  0
0 0  0
0 0  0
0 0  0
0 0  0
0 0  0
0 0  0
0 0  0
0 0  0
0 0  0
0 0  0
0 0  0
0 0  0
0 0  0
0 0  0
0 0  0
0 0  0
0 0  0
0 0  0
0 0  0
0 0  0
0 0  0
0 0  0
0 0  0
0 0  0
0 0  0
0 0  0
0 0  0
0 0  0
0 0  0
0 0  0
0 0  0
0 0  0
0 0  0
0 0  0
0 0  0
0 0  0
0 0  0
0.0242928 -0.933844  0
0.0730234 -0.944682  0
0.122153 -0.966231  0
0.171747 -0.998846  0
0.222266 -1.04374  0
0.27414 -1.10019  0
0.327483 -1.16761  0
0.383814 -1.24395  0
0.445732 -1.31562  0
0.52192 -1.3383  0
0.623503 -1.16106  0
0.340785 -0.567051  0
0 0  0
0 0  0
0 0  0
0 0  0
0 0  0
0 0  0
0 0  0
0 0  0
0 0  0
0 0  0
0 0  0
0 0  0
0 0  0
0 0  0
0 0  0
0 0  0
0 0  0
0 0  0
0 0  0
0 0  0
0 0  0
0 0  0
0 0  0
0 0  0
0 0  0
0 0  0
0 0  0
0 0  0
0 0  0
0 0  0
0 0  0
0 0  0
0 0  0
0 0  0
0 0  0
0 0  0
0 0  0
0 0  0
0.0195124 -0.988461  0
0.0587085 -0.999526  0
0.0980884 -1.02135  0
0.136875 -1.05373  0
0.175406 -1.09947  0
0.214 -1.15644  0
0.250776 -1.2231  0
0.285924 -1.30142  0
0.319296 -1.37491  0
0.353386 -1.40006  0
0.185814 -1.23808  0
0 0  0
0 0  0
0 0  0
0 0  0
0 0  0
0 0  0
0 0  0
0 0  0
0 0  0
0 0  0
0 0  0
0 0  0
0 0  0
0 0  0
0 0  0
0 0  0
0 0  0
0 0  0
0 0  0
0 0  0
0 0  0
0 0  0
0 0  0
0 0  0
0 0  0
0 0  0
0 0  0
0 0  0
0 0  0
0 0  0
0 0  0
0 0  0
0 0  0
0 0  0
0 0  0
0 0  0
0 0  0
0 0  0
0 0  0
0.0157337 -1.03454  0
0.0474277 -1.04589  0
0.0788492 -1.06722  0
0.109084 -1.09843  0
0.138347 -1.14413  0
0.167121 -1.20066  0
0.18987 -1.25996  0
0.206468 -1.3378  0
0.220322 -1.40723  0
0.233763 -1.42602  0
0.120741 -1.33032  0
0 0  0
0 0  0
0 0  0
0 0  0
0 0  0
0 0  0
0 0  0
0 0  0
0 0  0
0 0  0
0 0  0
0 0  0
0 0  0
0 0  0
0 0  0
0 0  0
0 0  0
0 0  0
0 0  0
0 0  0
0 0  0
0 0  0
0 0  0
0 0  0
0 0  0
0 0  0
0 0  0
0 0  0
0 0  0
0 0  0
0 0  0
0 0  0
0 0  0
0 0  0
0 0  0
0 0  0
0 0  0
0 0  0
0 0  0
0.0141094 -1.07515  0
0.0418954 -1.08626  0
0.0692524 -1.10719  0
0.0954031 -1.13641  0
0.121055 -1.18258  0
0.146168 -1.23763  0
0.166052 -1.28175  0
0.179543 -1.35684  0
0.182657 -1.41591  0
0.180233 -1.43374  0
0.0901167 -1.40312  0
0 0  0
0 0  0
0 0  0
0 0  0
0 0  0
0 0  0
0 0  0
0 0  0
0 0  0
0 0  0
0 0  0
0 0  0
0 0  0
0 0  0
0 0  0
0 0  0
0 0  0
0 0  0
0 0  0
0 0  0
0 0  0
0 0  0
0 0  0
0 0  0
0 0  0
0 0  0
0 0  0
0 0  0
0 0  0
0 0  0
0 0  0
0 0  0
0 0  0
0 0  0
0 0  0
0 0  0
0 0  0
0 0  0
0 0  0
0.0145993 -1.10924  0
0.0462249 -1.12233  0
0.074061 -1.13711  0
0.103187 -1.17254  0
0.128203 -1.20785  0
0.134902 -1.25494  0
0.190791 -1.27233  0
0.241433 -0.68119  0
0.218337 -0.706743  0
0.190361 -0.71687  0
0.0901167 -0.71687  0
0 0  0
0 0  0
0 0  0
0 0  0
0 0  0
0 0  0
0 0  0
0 0  0
0 0  0
0 0  0
0 0  0
0 0  0
0 0  0
0 0  0
0 0  0
0 0  0
0 0  0
0 0  0
0 0  0
0 0  0
0 0  0
0 0  0
0 0  0
0 0  0
0 0  0
0 0  0
0 0  0
0 0  0
0 0  0
0 0  0
0 0  0
0 0  0
0 0  0
0 0  0
0 0  0
0 0  0
0 0  0
0 0  0
0 0  0
0.0223591 -0.56192  0
0.0582623 -0.56968  0
0.0998092 -0.573958  0
0.136504 -0.595428  0
0.160247 -0.607275  0
0.155099 -0.627472  0
0.0674512 -0.627472  0
0 0  0
0 0  0
0 0  0
0 0  0
0 0  0
0 0  0
0 0  0
0 0  0
0 0  0
0 0  0
0 0  0
0 0  0
0 0  0
0 0  0
0 0  0
0 0  0
0 0  0
0 0  0
0 0  0
0 0  0
0 0  0
0 0  0
0 0  0
0 0  0
0 0  0
0 0  0
0 0  0
0 0  0
0 0  0
0 0  0
0 0  0
0 0  0
0 0  0
0 0  0
0 0  0
0 0  0
0 0  0
0 0  0
0 0  0
0 0  0
0 0  0
0 0  0
0 0  0
0 0  0
0 0  0
0 0  0
0 0  0
0 0  0
0 0  0
0 0  0
0 0  0
0 0  0
0 0  0
0 0  0
0 0  0
0 0  0
0 0  0
0 0  0
0 0  0
0 0  0
0 0  0
0 0  0
0 0  0
0 0  0
0 0  0
0 0  0
0 0  0
0 0  0
0 0  0
0 0  0
0 0  0
0 0  0
0 0  0
0 0  0
0 0  0
0 0  0
0 0  0
0 0  0
0 0  0
0 0  0
0 0  0
0 0  0
0 0  0
0 0  0
0 0  0
0 0  0
0 0  0
0 0  0
0 0  0
0 0  0
0 0  0
0 0  0
0 0  0
0 0  0
0 0  0
0 0  0
0 0  0
0 0  0
0 0  0
0 0  0
0 0  0
0 0  0
0 0  0
0 0  0
0 0  0
0 0  0
0 0  0
0 0  0
0 0  0
0 0  0
0 0  0
0 0  0
0 0  0
0 0  0
0 0  0
0 0  0
0 0  0
0 0  0
0 0  0
0 0  0
0 0  0
0 0  0
0 0  0
0 0  0
0 0  0
0 0  0
0 0  0
0 0  0
0 0  0
0 0  0
0 0  0
0 0  0
0 0  0
0 0  0
0 0  0
0 0  0
0 0  0
0 0  0
0 0  0
0 0  0
0 0  0
0 0  0
0 0  0
0 0  0
0 0  0
0 0  0
0 0  0
0 0  0
0 0  0
0 0  0
0 0  0
0 0  0
0 0  0
0 0  0
0 0  0
0 0  0
0 0  0
0 0  0
0 0  0
0 0  0
0 0  0
0 0  0
0 0  0
0 0  0
0 0  0
0 0  0
0 0  0
0 0  0
0 0  0
0 0  0
0 0  0
0 0  0
0 0  0
0 0  0
0 0  0
0 0  0
0 0  0
0 0  0
0 0  0
0 0  0
0 0  0
0 0  0
0 0  0
0 0  0
0 0  0
0 0  0
0 0  0
0 0  0
0 0  0
0 0  0
0 0  0
0 0  0
0 0  0
0 0  0
0 0  0
0 0  0
0 0  0
0 0  0
0 0  0
0 0  0
0 0  0
0 0  0
0 0  0
0 0  0
0 0  0
0 0  0
0 0  0
0 0  0
0 0  0
0 0  0
0 0  0
0 0  0
0 0  0
0 0  0
0 0  0
0 0  0
0 0  0
0 0  0
0 0  0
0 0  0
0 0  0
0 0  0
0 0  0
0 0  0
0 0  0
0 0  0
0 0  0
0 0  0
0 0  0
0 0  0
0 0  0
0 0  0
0 0  0
0 0  0
0 0  0
0 0  0
0 0  0
0 0  0
0 0  0
0 0  0
0 0  0
0 0  0
0 0  0
0 0  0
0 0  0
0 0  0
0 0  0
0 0  0
0 0  0
0 0  0
0 0  0
0 0  0
0 0  0
0 0  0
0 0  0
0 0  0
0 0  0
0 0  0
0 0  0
0 0  0
0 0  0
0 0  0
0 0  0
0 0  0
0 0  0
0 0  0
0 0  0
0 0  0
0 0  0
0 0  0
0 0  0
0 0  0
0 0  0
0 0  0
0 0  0
0 0  0
0 0  0
0 0  0
0 0  0
0 0  0
0 0  0
0 0  0
0 0  0
0 0  0
0 0  0
0 0  0
0 0  0
0 0  0
0 0  0
0 0  0
0 0  0
0 0  0
0 0  0

SCALARS pressure double 1
LOOKUP_TABLE default
2.87942
2.87028
2.84628
2.80812
2.75232
2.67631
2.57692
2.4501
2.292
2.10052
1.87143
1.61072
1.32998
1.04917
0.791687
0.581015
0.436748
0.367786
0.518002
0
0
0
0
0
0
0
0
0
0
0
0
0
0
0
0
0
0
0
0
0
0
0
0
0
0
0
0
0
0
0
2.66744
2.65699
2.63375
2.59509
2.53867
2.46204
2.36049
2.23136
2.07212
1.87467
1.64088
1.37497
1.08971
0.804294
0.54057
0.317636
0.158897
-0.0678444
0
0
0
0
0
0
0
0
0
0
0
0
0
0
0
0
0
0
0
0
0
0
0
0
0
0
0
0
0
0
0
0
2.44574
2.43554
2.41269
2.37312
2.31609
2.23675
2.13342
2.0003
1.83535
1.63058
1.38897
1.11473
0.822843
0.532359
0.258618
0
-0.0283142
0
0
0
0
0
0
0
0
0
0
0
0
0
0
0
0
0
0
0
0
0
0
0
0
0
0
0
0
0
0
0
0
0
2.21681
2.20745
2.1839
2.14407
2.08487
2.00324
1.89547
1.75921
1.58781
1.37556
1.12377
0.840426
0.546247
0.262516
-0.00714933
0
0
0
0
0
0
0
0
0
0
0
0
0
0
0
0
0
0
0
0
0
0
0
0
0
0
0
0
0
0
0
0
0
0
0
1.9833
1.97368
1.94999
1.90837
1.84605
1.76304
1.65503
1.5167
1.33672
1.11393
0.849946
0.55938
0.275511
0.0227218
0
0
0
0
0
0
0
0
0
0
0
0
0
0
0
0
0
0
0
0
0
0
0
0
0
0
0
0
0
0
0
0
0
0
0
0
1.74648
1.73732
1.7105
1.66724
1.60706
1.5269
1.4166
1.27295
1.08633
0.85355
0.575761
0.279234
0.0322977
0
0
0
0
0
0
0
0
0
0
0
0
0
0
0
0
0
0
0
0
0
0
0
0
0
0
0
0
0
0
0
0
0
0
0
0
0
1.50954
1.49573
1.4709
1.43046
1.37306
1.29077
1.18208
1.03818
0.847369
0.605246
0.310339
0.00627614
0
0
0
0
0
0
0
0
0
0
0
0
0
0
0
0
0
0
0
0
0
0
0
0
0
0
0
0
0
0
0
0
0
0
0
0
0
0
1.26965
1.26012
1.23549
1.19709
1.141
1.06329
0.957659
0.817578
0.630008
0.386517
0.0799248
0
0
0
0
0
0
0
0
0
0
0
0
0
0
0
0
0
0
0
0
0
0
0
0
0
0
0
0
0
0
0
0
0
0
0
0
0
0
0
1.03666
1.02634
1.00446
0.969016
0.916362
0.844225
0.746911
0.617177
0.443059
0.216069
-0.0298239
0
0
0
0
0
0
0
0
0
0
0
0
0
0
0
0
0
0
0
0
0
0
0
0
0
0
0
0
0
0
0
0
0
0
0
0
0
0
0
0.808376
0.799477
0.779602
0.747498
0.70077
0.635692
0.549651
0.438058
0.28833
0.0835711
0
0
0
0
0
0
0
0
0
0
0
0
0
0
0
0
0
0
0
0
0
0
0
0
0
0
0
0
0
0
0
0
0
0
0
0
0
0
0
0
0.586184
0.579015
0.562283
0.534693
0.49427
0.437203
0.362926
0.278012
0.172485
0.0459057
0
0
0
0
0
0
0
0
0
0
0
0
0
0
0
0
0
0
0
0
0
0
0
0
0
0
0
0
0
0
0
0
0
0
0
0
0
0
0
0
0.370442
0.365223
0.352389
0.331607
0.298248
0.247999
0.176095
0.124959
0.0685635
0.00816589
0
0
0
0
0
0
0
0
0
0
0
0
0
0
0
0
0
0
0
0
0
0
0
0
0
0
0
0
0
0
0
0
0
0
0
0
0
0
0
0
0.15963
0.157795
0.1494
0.139485
0.116134
0.0760917
-0.0157758
-0.0075087
-0.0097627
-0.0323533
0
0
0
0
0
0
0
0
0
0
0
0
0
0
0
0
0
0
0
0
0
0
0
0
0
0
0
0
0
0
0
0
0
0
0
0
0
0
0
0
-0.0300407
-0.0238007
-0.031913
-0.0192437
-0.0285949
-0.018772
0
0
0
0
0
0
0
0
0
0
0
0
0
0
0
0
0
0
0
0
0
0
0
0
0
0
0
0
0
0
0
0
0
0
0
0
0
0
0
0
0
0
0
0
0
0
0
0
0
0
0
0
0
0
0
0
0
0
0
0
0
0
0
0
0
0
0
0
0
0
0
0
0
0
0
0
0
0
0
0
0
0
0
0
0
0
0
0
0
0
0
0
0
0
0
0
0
0
0
0
0
0
0
0
0
0
0
0
0
0
0
0
0
0
0
0
0
0
0
0
0
0
0
0
0
0
0
0
0
0
0
0
0
0
0
0
0
0
0
0
0
0
0
0
0
0
0
0
0
0
0
0
0
0
0
0
0
0
0
0
0
0
0
0
0
0
0
0
0
0
0
0
0
0
0
0
0
0
0
0
0
0
0
0
0
0
0
0
0
0
0
0
0
0
0
0
0
0
0
0
0
0
0
0
0
0
0
0
0
0
0
0
0
0
0
0
0
0
0
0
0
0
0
0
0
0
0
0
0
0
0
0
0
0
0
0
0
0
0
0
0
0
0
0
0
0
0
0
0
0
0
0
0
0
0
0
0
0
0
0
0
0
0
0
0
0
0
0
0
0
0
0
0
0
0
0
0
0
0
0
0
0
0
0
0
0
0
0
0
0
0
0
0
0
0
0
0
0
0
0
0
0
0
0
0
0
0
0
0
0
0
0
0
0
0
0
0
0
0
0
0
0
0
0
0
0
0
0
0
0
0
0
0
0
0
0
0
0
0
0
0
0
0
0
SCALARS rhs double 1
LOOKUP_TABLE default
-5.54431
-5.72739
-5.70368
-5.81724
-5.9161
-6.04102
-6.19482
-6.35406
-6.50775
-6.62178
-6.61832
-6.42466
-6.03604
-5.54509
-5.11475
-4.92379
-5.06363
-5.41053
1.34581
0
0
0
0
0
0
0
0
0
0
0
0
0
0
0
0
0
0
0
0
0
0
0
0
0
0
0
0
0
0
0
-0.526954
-0.54239
-0.622381
-0.695306
-0.784537
-0.873102
-0.980943
-1.12478
-1.26308
-1.3472
-1.31744
-1.08653
-0.659598
-0.139026
0.25304
0.249791
0.568359
2.63802
0
0
0
0
0
0
0
0
0
0
0
0
0
0
0
0
0
0
0
0
0
0
0
0
0
0
0
0
0
0
0
0
-0.466599
-0.501887
-0.634743
-0.664865
-0.719611
-0.814688
-0.935613
-1.0746
-1.20627
-1.26421
-1.16342
-0.80955
-0.198053
0.481085
0.791898
5.10447
1.34581
0
0
0
0
0
0
0
0
0
0
0
0
0
0
0
0
0
0
0
0
0
0
0
0
0
0
0
0
0
0
0
0
0
-0.385691
-0.517172
-0.569929
-0.585612
-0.658257
-0.763106
-0.886133
-1.00805
-1.12152
-1.1535
-0.962437
-0.421623
0.41497
1.11391
2.63802
0
0
0
0
0
0
0
0
0
0
0
0
0
0
0
0
0
0
0
0
0
0
0
0
0
0
0
0
0
0
0
0
0
0
0
-0.365102
-0.441056
-0.478511
-0.527332
-0.600169
-0.688626
-0.810227
-0.935735
-1.02452
-1.00183
-0.679637
0.199056
1.46978
2.63802
0
0
0
0
0
0
0
0
0
0
0
0
0
0
0
0
0
0
0
0
0
0
0
0
0
0
0
0
0
0
0
0
0
0
0
0
-0.274294
-0.387946
-0.417255
-0.4514
-0.525408
-0.620992
-0.726937
-0.845603
-0.910195
-0.79398
-0.246228
1.43186
2.63802
0
0
0
0
0
0
0
0
0
0
0
0
0
0
0
0
0
0
0
0
0
0
0
0
0
0
0
0
0
0
0
0
0
0
0
0
0
-0.231385
-0.304782
-0.330665
-0.379771
-0.441874
-0.539421
-0.644047
-0.747382
-0.778963
-0.557984
0.647713
6.33359
0
0
0
0
0
0
0
0
0
0
0
0
0
0
0
0
0
0
0
0
0
0
0
0
0
0
0
0
0
0
0
0
0
0
0
0
0
0
-0.171758
-0.240324
-0.248655
-0.303724
-0.364823
-0.453081
-0.556745
-0.650404
-0.650062
-0.355859
15.2477
0
0
0
0
0
0
0
0
0
0
0
0
0
0
0
0
0
0
0
0
0
0
0
0
0
0
0
0
0
0
0
0
0
0
0
0
0
0
0
-0.111365
-0.17529
-0.181994
-0.229059
-0.289967
-0.369303
-0.468787
-0.557657
-0.524317
0.482141
10.0011
0
0
0
0
0
0
0
0
0
0
0
0
0
0
0
0
0
0
0
0
0
0
0
0
0
0
0
0
0
0
0
0
0
0
0
0
0
0
0
-0.0682744
-0.111654
-0.121491
-0.160094
-0.216955
-0.286068
-0.376946
-0.465286
-0.404965
24.9204
0
0
0
0
0
0
0
0
0
0
0
0
0
0
0
0
0
0
0
0
0
0
0
0
0
0
0
0
0
0
0
0
0
0
0
0
0
0
0
0
-0.0311414
-0.0639316
-0.0716765
-0.0957161
-0.145717
-0.201964
-0.27136
-0.334922
-0.227194
25.0709
0
0
0
0
0
0
0
0
0
0
0
0
0
0
0
0
0
0
0
0
0
0
0
0
0
0
0
0
0
0
0
0
0
0
0
0
0
0
0
0
-0.0100605
-0.0277742
-0.0289292
-0.0406329
-0.0736903
-0.109069
0.394822
0.387108
0.540816
24.7985
0
0
0
0
0
0
0
0
0
0
0
0
0
0
0
0
0
0
0
0
0
0
0
0
0
0
0
0
0
0
0
0
0
0
0
0
0
0
0
0
0.483883
0.485549
0.492908
0.507859
0.515289
0.631776
1.8608
1.95635
3.16762
23.4522
0
0
0
0
0
0
0
0
0
0
0
0
0
0
0
0
0
0
0
0
0
0
0
0
0
0
0
0
0
0
0
0
0
0
0
0
0
0
0
0
4.32257
4.27624
4.43245
5.55601
5.56628
5.6724
5.42452
5.43401
4.26976
17.1298
0
0
0
0
0
0
0
0
0
0
0
0
0
0
0
0
0
0
0
0
0
0
0
0
0
0
0
0
0
0
0
0
0
0
0
0
0
0
0
0
6.55202
6.55536
6.55982
5.31204
5.40986
6.30896
5.08555
5.09432
5.2091
10.3371
0
0
0
0
0
0
0
0
0
0
0
0
0
0
0
0
0
0
0
0
0
0
0
0
0
0
0
0
0
0
0
0
0
0
0
0
0
0
0
0
5.52783
5.53996
5.54196
5.54121
5.54439
4.52522
5.16545
5.22779
16.4546
0
0
0
0
0
0
0
0
0
0
0
0
0
0
0
0
0
0
0
0
0
0
0
0
0
0
0
0
0
0
0
0
0
0
0
0
0
0
0
0
0
3.60674
3.66202
3.98033
3.98143
3.98244
3.98396
3.23505
3.31189
11.5415
0
0
0
0
0
0
0
0
0
0
0
0
0
0
0
0
0
0
0
0
0
0
0
0
0
0
0
0
0
0
0
0
0
0
0
0
0
0
0
0
0
6.01719
6.36025
5.75447
5.75462
5.75506
5.75536
5.75588
5.76119
8.30564
0
0
0
0
0
0
0
0
0
0
0
0
0
0
0
0
0
0
0
0
0
0
0
0
0
0
0
0
0
0
0
0
0
0
0
0
0
0
0
0
0
3.29611
2.74112
2.74112
2.74112
2.74112
2.74112
2.74112
2.74112
2.74112
0
0
0
0
0
0
0
0
0
0
0
0
0
0
0
0
0
0
0
0
0
0
0
0
0
0
0
0
0
0
0
0
0
0
0
0
0
0
0
0
0
0
0
0
0
0
0
0
0
0
0
0
0
0
0
0
0
0
0
0
0
0
0
0
0
0
0
0
0
0
0
0
0
0
0
0
0
0
0
0
0
0
0
0
0
0
0
0
0
0
0
