# vtk DataFile Version 4.0
Nusif Fluid VTK output
ASCII
DATASET STRUCTURED_POINTS
DIMENSIONS 50 20 1
ORIGIN 0 0 0 
SPACING 0.2 0.2 1
POINT_DATA 1000 

VECTORS velocity double
0.0482288 -0.0543984  0
0.14531 -0.0553495  0
0.245216 -0.0558134  0
0.348891 -0.0583857  0
0.456988 -0.0617403  0
0.572025 -0.065483  0
0.695948 -0.0700895  0
0.829898 -0.0755577  0
0.974609 -0.0811206  0
1.1297 -0.0859014  0
1.29261 -0.0888156  0
1.45856 -0.0888872  0
1.62152 -0.0857827  0
1.77528 -0.0796776  0
1.91366 -0.0703955  0
2.03317 -0.0607585  0
2.13411 -0.051934  0
2.2171 -0.0428173  0
2.28099 -0.0325387  0
2.32732 -0.0252556  0
2.36076 -0.0198163  0
2.38153 -0.0124732  0
2.38689 -0.00434945  0
2.38216 -0.00241122  0
2.36971 0.00334058  0
2.334 0.0208518  0
2.27905 0.0226003  0
2.25069 0  0
1.12535 0  0
0 0  0
0 0  0
0 0  0
0 0  0
0 0  0
0 0  0
0 0  0
0 0  0
0 0  0
0 0  0
0 0  0
0 0  0
0 0  0
0 0  0
0 0  0
0 0  0
0 0  0
0 0  0
0 0  0
0 0  0
0 0  0
0.0472382 -0.162312  0
0.143796 -0.163627  0
0.242027 -0.167921  0
0.342649 -0.17472  0
0.449213 -0.183765  0
0.562472 -0.195174  0
0.683899 -0.209156  0
0.815543 -0.225388  0
0.958596 -0.242334  0
1.11257 -0.257149  0
1.2747 -0.266007  0
1.43937 -0.265586  0
1.59954 -0.255473  0
1.74905 -0.236416  0
1.88056 -0.206664  0
1.99059 -0.177217  0
2.08279 -0.151972  0
2.15975 -0.125745  0
2.21709 -0.0938491  0
2.25632 -0.0726047  0
2.28668 -0.0591833  0
2.30923 -0.039528  0
2.31566 -0.0120853  0
2.31296 -0.0102357  0
2.31546 -0.00188022  0
2.31289 0.0470973  0
2.3075 0.0452006  0
2.27909 0.0226003  0
1.12535 0  0
0 0  0
0 0  0
0 0  0
0 0  0
0 0  0
0 0  0
0 0  0
0 0  0
0 0  0
0 0  0
0 0  0
0 0  0
0 0  0
0 0  0
0 0  0
0 0  0
0 0  0
0 0  0
0 0  0
0 0  0
0 0  0
0.0468493 -0.267201  0
0.139557 -0.270296  0
0.233812 -0.277763  0
0.332283 -0.288224  0
0.434985 -0.302558  0
0.543799 -0.321334  0
0.660625 -0.344554  0
0.787466 -0.371704  0
0.926222 -0.400728  0
1.0772 -0.426615  0
1.23715 -0.441652  0
1.39816 -0.4386  0
1.55076 -0.418293  0
1.69013 -0.385452  0
1.80706 -0.328989  0
1.8986 -0.279546  0
1.97579 -0.242048  0
2.04409 -0.203664  0
2.09271 -0.144856  0
2.12189 -0.113138  0
2.14854 -0.0984689  0
2.17532 -0.0725675  0
2.18931 -0.016786  0
2.19391 -0.0189301  0
2.19719 -0.0104416  0
2.25599 0.0210248  0
2.31114 0.0226003  0
1.15375 0.0226003  0
0 0  0
0 0  0
0 0  0
0 0  0
0 0  0
0 0  0
0 0  0
0 0  0
0 0  0
0 0  0
0 0  0
0 0  0
0 0  0
0 0  0
0 0  0
0 0  0
0 0  0
0 0  0
0 0  0
0 0  0
0 0  0
0 0  0
0.0441829 -0.36907  0
0.133378 -0.374297  0
0.224138 -0.383018  0
0.317468 -0.397067  0
0.414941 -0.416619  0
0.517659 -0.441895  0
0.627249 -0.473472  0
0.746046 -0.511508  0
0.876646 -0.553368  0
1.02057 -0.591834  0
1.17461 -0.613318  0
1.32705 -0.603327  0
1.46303 -0.565148  0
1.58297 -0.520901  0
1.67748 -0.427919  0
1.746 -0.363723  0
1.80982 -0.321744  0
1.87253 -0.277882  0
1.91923 -0.183147  0
1.95627 -0.152568  0
1.98521 -0.126154  0
1.99316 -0.0910253  0
2.09395 -0.0545628  0
2.19008 -0.0111056  0
2.19131 -0.0052208  0
1.0986 -0.0052208  0
0 0  0
0 0  0
0 0  0
0 0  0
0 0  0
0 0  0
0 0  0
0 0  0
0 0  0
0 0  0
0 0  0
0 0  0
0 0  0
0 0  0
0 0  0
0 0  0
0 0  0
0 0  0
0 0  0
0 0  0
0 0  0
0 0  0
0 0  0
0 0  0
0.0419827 -0.467697  0
0.12665 -0.472729  0
0.212595 -0.483699  0
0.300486 -0.500761  0
0.39167 -0.524479  0
0.487033 -0.555041  0
0.587285 -0.593178  0
0.694203 -0.640481  0
0.810547 -0.694294  0
0.939943 -0.747191  0
1.08044 -0.775449  0
1.21537 -0.751571  0
1.32169 -0.682117  0
1.40939 -0.634494  0
1.48674 -0.503395  0
1.55521 -0.436745  0
1.61632 -0.385099  0
1.64195 -0.314291  0
1.77579 -0.256747  0
1.92372 -0.086779  0
1.94395 -0.0670518  0
1.97162 -0.0455126  0
0.996581 -0.0455126  0
0 0  0
0 0  0
0 0  0
0 0  0
0 0  0
0 0  0
0 0  0
0 0  0
0 0  0
0 0  0
0 0  0
0 0  0
0 0  0
0 0  0
0 0  0
0 0  0
0 0  0
0 0  0
0 0  0
0 0  0
0 0  0
0 0  0
0 0  0
0 0  0
0 0  0
0 0  0
0 0  0
0.0401591 -0.561659  0
0.120519 -0.567086  0
0.201346 -0.578974  0
0.283737 -0.598685  0
0.368734 -0.62575  0
0.456532 -0.659871  0
0.546924 -0.701958  0
0.639312 -0.754007  0
0.733303 -0.814063  0
0.836397 -0.882872  0
0.950204 -0.917059  0
1.05149 -0.869166  0
1.12162 -0.758128  0
1.14861 -0.684613  0
1.30209 -0.610503  0
1.49238 -0.236109  0
1.53735 -0.205366  0
1.59373 -0.157146  0
0.820976 -0.157146  0
0 0  0
0 0  0
0 0  0
0 0  0
0 0  0
0 0  0
0 0  0
0 0  0
0 0  0
0 0  0
0 0  0
0 0  0
0 0  0
0 0  0
0 0  0
0 0  0
0 0  0
0 0  0
0 0  0
0 0  0
0 0  0
0 0  0
0 0  0
0 0  0
0 0  0
0 0  0
0 0  0
0 0  0
0 0  0
0 0  0
0 0  0
0.0387927 -0.65206  0
0.116522 -0.657952  0
0.193083 -0.668685  0
0.270302 -0.691516  0
0.349357 -0.719911  0
0.429644 -0.756713  0
0.513324 -0.80213  0
0.589851 -0.845764  0
0.656658 -0.906142  0
0.724956 -0.985204  0
0.792412 -1.01894  0
0.824703 -0.918043  0
0.936407 -0.851577  0
1.09836 -0.342306  0
0.574304 -0.342306  0
0 0  0
0 0  0
0 0  0
0 0  0
0 0  0
0 0  0
0 0  0
0 0  0
0 0  0
0 0  0
0 0  0
0 0  0
0 0  0
0 0  0
0 0  0
0 0  0
0 0  0
0 0  0
0 0  0
0 0  0
0 0  0
0 0  0
0 0  0
0 0  0
0 0  0
0 0  0
0 0  0
0 0  0
0 0  0
0 0  0
0 0  0
0 0  0
0 0  0
0 0  0
0 0  0
0.0387282 -0.741147  0
0.117739 -0.748628  0
0.190543 -0.750346  0
0.26054 -0.780037  0
0.332562 -0.805384  0
0.404733 -0.846644  0
0.483269 -0.897402  0
0.54904 -0.910069  0
0.602569 -0.973705  0
0.648511 -1.04339  0
0.665786 -1.05694  0
0.745245 -0.987491  0
0.412352 -0.459022  0
0 0  0
0 0  0
0 0  0
0 0  0
0 0  0
0 0  0
0 0  0
0 0  0
0 0  0
0 0  0
0 0  0
0 0  0
0 0  0
0 0  0
0 0  0
0 0  0
0 0  0
0 0  0
0 0  0
0 0  0
0 0  0
0 0  0
0 0  0
0 0  0
0 0  0
0 0  0
0 0  0
0 0  0
0 0  0
0 0  0
0 0  0
0 0  0
0 0  0
0 0  0
0 0  0
0 0  0
0 0  0
0.0389576 -0.830395  0
0.120201 -0.842623  0
0.191685 -0.817794  0
0.249453 -0.851816  0
0.31854 -0.886174  0
0.375922 -0.90689  0
0.392787 -0.944072  0
0.517065 -0.9395  0
0.665437 -0.501186  0
0.675795 -0.530333  0
0.663923 -0.528469  0
0.332893 -0.528469  0
0 0  0
0 0  0
0 0  0
0 0  0
0 0  0
0 0  0
0 0  0
0 0  0
0 0  0
0 0  0
0 0  0
0 0  0
0 0  0
0 0  0
0 0  0
0 0  0
0 0  0
0 0  0
0 0  0
0 0  0
0 0  0
0 0  0
0 0  0
0 0  0
0 0  0
0 0  0
0 0  0
0 0  0
0 0  0
0 0  0
0 0  0
0 0  0
0 0  0
0 0  0
0 0  0
0 0  0
0 0  0
0 0  0
0.0177693 -0.892895  0
0.0355386 -0.890623  0
0.144908 -0.868807  0
0.289302 -0.440193  0
0.340224 -0.463345  0
0.384612 -0.461877  0
0.402945 -0.472036  0
0.196393 -0.472036  0
0 0  0
0 0  0
0 0  0
0 0  0
0 0  0
0 0  0
0 0  0
0 0  0
0 0  0
0 0  0
0 0  0
0 0  0
0 0  0
0 0  0
0 0  0
0 0  0
0 0  0
0 0  0
0 0  0
0 0  0
0 0  0
0 0  0
0 0  0
0 0  0
0 0  0
0 0  0
0 0  0
0 0  0
0 0  0
0 0  0
0 0  0
0 0  0
0 0  0
0 0  0
0 0  0
0 0  0
0 0  0
0 0  0
0 0  0
0 0  0
0 0  0
0 0  0
0.00774865 -0.455332  0
0.025518 -0.445311  0
0.0177693 -0.445311  0
0 0  0
0 0  0
0 0  0
0 0  0
0 0  0
0 0  0
0 0  0
0 0  0
0 0  0
0 0  0
0 0  0
0 0  0
0 0  0
0 0  0
0 0  0
0 0  0
0 0  0
0 0  0
0 0  0
0 0  0
0 0  0
0 0  0
0 0  0
0 0  0
0 0  0
0 0  0
0 0  0
0 0  0
0 0  0
0 0  0
0 0  0
0 0  0
0 0  0
0 0  0
0 0  0
0 0  0
0 0  0
0 0  0
0 0  0
0 0  0
0 0  0
0 0  0
0 0  0
0 0  0
0 0  0
0 0  0
0 0  0
0 0  0
0 0  0
0 0  0
0 0  0
0 0  0
0 0  0
0 0  0
0 0  0
0 0  0
0 0  0
0 0  0
0 0  0
0 0  0
0 0  0
0 0  0
0 0  0
0 0  0
0 0  0
0 0  0
0 0  0
0 0  0
0 0  0
0 0  0
0 0  0
0 0  0
0 0  0
0 0  0
0 0  0
0 0  0
0 0  0
0 0  0
0 0  0
0 0  0
0 0  0
0 0  0
0 0  0
0 0  0
0 0  0
0 0  0
0 0  0
0 0  0
0 0  0
0 0  0
0 0  0
0 0  0
0 0  0
0 0  0
0 0  0
0 0  0
0 0  0
0 0  0
0 0  0
0 0  0
0 0  0
0 0  0
0 0  0
0 0  0
0 0  0
0 0  0
0 0  0
0 0  0
0 0  0
0 0  0
0 0  0
0 0  0
0 0  0
0 0  0
0 0  0
0 0  0
0 0  0
0 0  0
0 0  0
0 0  0
0 0  0
0 0  0
0 0  0
0 0  0
0 0  0
0 0  0
0 0  0
0 0  0
0 0  0
0 0  0
0 0  0
0 0  0
0 0  0
0 0  0
0 0  0
0 0  0
0 0  0
0 0  0
0 0  0
0 0  0
0 0  0
0 0  0
0 0  0
0 0  0
0 0  0
0 0  0
0 0  0
0 0  0
0 0  0
0 0  0
0 0  0
0 0  0
0 0  0
0 0  0
0 0  0
0 0  0
0 0  0
0 0  0
0 0  0
0 0  0
0 0  0
0 0  0
0 0  0
0 0  0
0 0  0
0 0  0
0 0  0
0 0  0
0 0  0
0 0  0
0 0  0
0 0  0
0 0  0
0 0  0
0 0  0
0 0  0
0 0  0
0 0  0
0 0  0
0 0  0
0 0  0
0 0  0
0 0  0
0 0  0
0 0  0
0 0  0
0 0  0
0 0  0
0 0  0
0 0  0
0 0  0
0 0  0
0 0  0
0 0  0
0 0  0
0 0  0
0 0  0
0 0  0
0 0  0
0 0  0
0 0  0
0 0  0
0 0  0
0 0  0
0 0  0
0 0  0
0 0  0
0 0  0
0 0  0
0 0  0
0 0  0
0 0  0
0 0  0
0 0  0
0 0  0
0 0  0
0 0  0
0 0  0
0 0  0
0 0  0
0 0  0
0 0  0
0 0  0
0 0  0
0 0  0
0 0  0
0 0  0
0 0  0
0 0  0
0 0  0
0 0  0
0 0  0
0 0  0
0 0  0
0 0  0
0 0  0
0 0  0
0 0  0
0 0  0
0 0  0
0 0  0
0 0  0
0 0  0
0 0  0
0 0  0
0 0  0
0 0  0
0 0  0
0 0  0
0 0  0
0 0  0
0 0  0
0 0  0
0 0  0
0 0  0
0 0  0
0 0  0
0 0  0
0 0  0
0 0  0
0 0  0
0 0  0
0 0  0
0 0  0
0 0  0
0 0  0
0 0  0
0 0  0
0 0  0
0 0  0
0 0  0
0 0  0
0 0  0
0 0  0
0 0  0
0 0  0
0 0  0
0 0  0
0 0  0
0 0  0
0 0  0
0 0  0
0 0  0
0 0  0
0 0  0
0 0  0
0 0  0
0 0  0
0 0  0
0 0  0
0 0  0
0 0  0
0 0  0
0 0  0
0 0  0
0 0  0
0 0  0
0 0  0
0 0  0
0 0  0
0 0  0
0 0  0
0 0  0
0 0  0
0 0  0
0 0  0
0 0  0
0 0  0
0 0  0
0 0  0
0 0  0
0 0  0
0 0  0
0 0  0
0 0  0
0 0  0
0 0  0
0 0  0
0 0  0
0 0  0
0 0  0
0 0  0
0 0  0
0 0  0
0 0  0
0 0  0
0 0  0
0 0  0
0 0  0
0 0  0
0 0  0
0 0  0
0 0  0
0 0  0
0 0  0
0 0  0
0 0  0
0 0  0
0 0  0
0 0  0
0 0  0
0 0  0
0 0  0
0 0  0
0 0  0
0 0  0
0 0  0
0 0  0
0 0  0
0 0  0
0 0  0
0 0  0
0 0  0
0 0  0
0 0  0
0 0  0
0 0  0
0 0  0
0 0  0
0 0  0
0 0  0
0 0  0
0 0  0
0 0  0
0 0  0
0 0  0
0 0  0
0 0  0
0 0  0
0 0  0
0 0  0
0 0  0
0 0  0
0 0  0
0 0  0
0 0  0
0 0  0
0 0  0
0 0  0
0 0  0
0 0  0
0 0  0
0 0  0
0 0  0
0 0  0
0 0  0
0 0  0
0 0  0
0 0  0
0 0  0
0 0  0
0 0  0
0 0  0
0 0  0
0 0  0
0 0  0
0 0  0
0 0  0
0 0  0
0 0  0
0 0  0
0 0  0
0 0  0
0 0  0
0 0  0
0 0  0
0 0  0
0 0  0
0 0  0
0 0  0
0 0  0
0 0  0
0 0  0
0 0  0
0 0  0
0 0  0
0 0  0
0 0  0
0 0  0
0 0  0
0 0  0
0 0  0
0 0  0
0 0  0
0 0  0
0 0  0
0 0  0
0 0  0
0 0  0
0 0  0
0 0  0
0 0  0
0 0  0
0 0  0
0 0  0
0 0  0
0 0  0
0 0  0
0 0  0
0 0  0
0 0  0
0 0  0
0 0  0
0 0  0
0 0  0
0 0  0
0 0  0
0 0  0
0 0  0
0 0  0
0 0  0
0 0  0
0 0  0
0 0  0
0 0  0
0 0  0
0 0  0
0 0  0
0 0  0
0 0  0
0 0  0
0 0  0
0 0  0
0 0  0
0 0  0
0 0  0
0 0  0
0 0  0
0 0  0
0 0  0
0 0  0
0 0  0
0 0  0
0 0  0
0 0  0
0 0  0
0 0  0
0 0  0
0 0  0
0 0  0
0 0  0
0 0  0
0 0  0
0 0  0
0 0  0
0 0  0
0 0  0
0 0  0
0 0  0
0 0  0
0 0  0
0 0  0
0 0  0
0 0  0
0 0  0
0 0  0
0 0  0

SCALARS pressure double 1
LOOKUP_TABLE default
2.4803
2.47303
2.46245
2.44134
2.41532
2.38453
2.34422
2.28982
2.21808
2.12397
2.0035
1.85633
1.6882
1.50853
1.32997
1.16424
1.01616
0.885956
0.773871
0.681453
0.601957
0.528985
0.460965
0.405406
0.355565
0.320445
0.371963
0.607051
0
0
0
0
0
0
0
0
0
0
0
0
0
0
0
0
0
0
0
0
0
0
2.24751
2.2428
2.22212
2.20384
2.1801
2.14691
2.10423
2.04925
1.97584
1.87861
1.75381
1.60152
1.42814
1.24633
1.06793
0.909799
0.771332
0.648448
0.5388
0.458639
0.387237
0.316883
0.241445
0.192691
0.133533
0.0151153
-0.0426339
0
0
0
0
0
0
0
0
0
0
0
0
0
0
0
0
0
0
0
0
0
0
0
1.99104
1.97594
1.96424
1.94348
1.91539
1.87993
1.8344
1.77583
1.69937
1.59788
1.46522
1.30192
1.11785
0.929849
0.750661
0.610664
0.494116
0.382566
0.272249
0.218492
0.167532
0.107979
-0.00269531
-0.0093519
-0.0423932
0
0
0
0
0
0
0
0
0
0
0
0
0
0
0
0
0
0
0
0
0
0
0
0
0
1.70653
1.69803
1.68011
1.65673
1.62584
1.58607
1.53597
1.47277
1.39205
1.28525
1.1423
0.96234
0.762008
0.567024
0.376263
0.278017
0.204237
0.1165
-0.0383647
-0.0159454
-0.0379386
-0.0515999
0
0
0
0
0
0
0
0
0
0
0
0
0
0
0
0
0
0
0
0
0
0
0
0
0
0
0
0
1.40783
1.39764
1.3762
1.34816
1.31312
1.26837
1.21139
1.14131
1.0577
0.948445
0.795554
0.594382
0.36871
0.18586
-0.0690495
-0.0606932
-0.058212
-0.068176
0
0
0
0
0
0
0
0
0
0
0
0
0
0
0
0
0
0
0
0
0
0
0
0
0
0
0
0
0
0
0
0
1.09769
1.08115
1.05334
1.02034
0.981683
0.93162
0.865046
0.782068
0.700667
0.600467
0.447068
0.224271
-0.0540111
-0.093291
0
0
0
0
0
0
0
0
0
0
0
0
0
0
0
0
0
0
0
0
0
0
0
0
0
0
0
0
0
0
0
0
0
0
0
0
0.780323
0.755694
0.711766
0.673951
0.635886
0.583872
0.504876
0.386536
0.324265
0.261672
0.136877
-0.0631846
0
0
0
0
0
0
0
0
0
0
0
0
0
0
0
0
0
0
0
0
0
0
0
0
0
0
0
0
0
0
0
0
0
0
0
0
0
0
0.46719
0.428594
0.342835
0.304805
0.281628
0.239381
0.158114
-0.0706291
-0.0553249
-0.019025
-0.0802432
0
0
0
0
0
0
0
0
0
0
0
0
0
0
0
0
0
0
0
0
0
0
0
0
0
0
0
0
0
0
0
0
0
0
0
0
0
0
0
0.174203
0.128644
-0.0743175
-0.080476
-0.0516521
-0.064657
-0.0393288
0
0
0
0
0
0
0
0
0
0
0
0
0
0
0
0
0
0
0
0
0
0
0
0
0
0
0
0
0
0
0
0
0
0
0
0
0
0
0
0
0
0
0
-0.0695943
-0.00534186
0
0
0
0
0
0
0
0
0
0
0
0
0
0
0
0
0
0
0
0
0
0
0
0
0
0
0
0
0
0
0
0
0
0
0
0
0
0
0
0
0
0
0
0
0
0
0
0
0
0
0
0
0
0
0
0
0
0
0
0
0
0
0
0
0
0
0
0
0
0
0
0
0
0
0
0
0
0
0
0
0
0
0
0
0
0
0
0
0
0
0
0
0
0
0
0
0
0
0
0
0
0
0
0
0
0
0
0
0
0
0
0
0
0
0
0
0
0
0
0
0
0
0
0
0
0
0
0
0
0
0
0
0
0
0
0
0
0
0
0
0
0
0
0
0
0
0
0
0
0
0
0
0
0
0
0
0
0
0
0
0
0
0
0
0
0
0
0
0
0
0
0
0
0
0
0
0
0
0
0
0
0
0
0
0
0
0
0
0
0
0
0
0
0
0
0
0
0
0
0
0
0
0
0
0
0
0
0
0
0
0
0
0
0
0
0
0
0
0
0
0
0
0
0
0
0
0
0
0
0
0
0
0
0
0
0
0
0
0
0
0
0
0
0
0
0
0
0
0
0
0
0
0
0
0
0
0
0
0
0
0
0
0
0
0
0
0
0
0
0
0
0
0
0
0
0
0
0
0
0
0
0
0
0
0
0
0
0
0
0
0
0
0
0
0
0
0
0
0
0
0
0
0
0
0
0
0
0
0
0
0
0
0
0
0
0
0
0
0
0
0
0
0
0
0
0
0
0
0
0
0
0
0
0
0
0
0
0
0
0
0
0
0
0
0
0
0
0
0
0
0
0
0
0
0
0
0
0
0
0
0
0
0
0
0
0
0
0
0
0
0
0
0
0
0
0
0
0
0
0
0
0
0
0
0
0
0
0
0
0
0
0
0
0
0
0
0
0
0
0
0
0
0
0
0
0
0
0
0
0
0
0
0
0
0
0
0
0
0
0
0
0
0
0
0
0
0
0
0
0
0
0
0
0
0
0
0
0
0
0
0
0
0
0
0
0
0
0
0
0
0
0
0
0
0
0
0
0
0
0
0
0
0
0
0
0
0
0
0
0
0
0
0
0
0
0
0
0
0
0
0
0
0
0
0
0
0
0
0
0
0
0
0
0
0
0
0
0
0
0
0
0
0
0
0
0
0
0
0
0
0
0
0
0
0
0
0
0
0
0
0
0
0
0
0
0
0
0
0
0
0
0
0
0
0
0
0
0
0
0
0
0
0
0
0
0
0
0
SCALARS rhs double 1
LOOKUP_TABLE default
-6.10595
-6.02502
-6.02345
-6.06356
-6.12819
-6.22051
-6.34634
-6.50191
-6.67741
-6.83854
-6.93815
-6.93055
-6.8038
-6.56354
-6.24045
-5.94467
-5.71138
-5.51128
-5.35139
-5.26889
-5.21682
-5.17157
-5.172
-5.17778
-5.18503
-5.46719
-5.77606
1.43786
0
0
0
0
0
0
0
0
0
0
0
0
0
0
0
0
0
0
0
0
0
0
-0.841347
-0.779331
-0.786805
-0.829943
-0.893051
-0.983656
-1.10514
-1.25613
-1.42928
-1.58428
-1.67264
-1.6383
-1.48748
-1.24045
-0.886344
-0.622245
-0.450065
-0.285363
-0.152064
-0.144817
-0.114208
-0.051615
0.048374
0.0104686
-0.325536
6.41956
3.05836
0
0
0
0
0
0
0
0
0
0
0
0
0
0
0
0
0
0
0
0
0
0
0
-0.771203
-0.723415
-0.732895
-0.775355
-0.837916
-0.927607
-1.04885
-1.21063
-1.39614
-1.56224
-1.6244
-1.50782
-1.2502
-0.927771
-0.457862
-0.251425
-0.168776
0.00812807
0.349309
0.177697
0.171897
-0.0526041
10.5579
7.84024
3.05836
0
0
0
0
0
0
0
0
0
0
0
0
0
0
0
0
0
0
0
0
0
0
0
0
0
-0.707735
-0.672356
-0.682836
-0.721652
-0.77909
-0.861127
-0.976685
-1.14196
-1.33336
-1.50567
-1.51066
-1.22299
-0.794956
-0.354139
0.55499
0.446646
0.3624
0.351657
18.4796
12.0958
7.84024
3.05836
0
0
0
0
0
0
0
0
0
0
0
0
0
0
0
0
0
0
0
0
0
0
0
0
0
0
0
0
-0.640006
-0.617076
-0.629121
-0.662443
-0.71057
-0.777322
-0.874984
-1.02913
-1.19978
-1.36567
-1.25426
-0.665106
0.351837
0.745438
34.6255
25.9495
13.9975
6.41956
0
0
0
0
0
0
0
0
0
0
0
0
0
0
0
0
0
0
0
0
0
0
0
0
0
0
0
0
0
0
0
0
-0.574256
-0.564869
-0.578542
-0.606335
-0.638605
-0.681577
-0.753657
-0.868356
-0.95452
-1.10169
-0.773525
0.684759
7.86623
30.6874
0
0
0
0
0
0
0
0
0
0
0
0
0
0
0
0
0
0
0
0
0
0
0
0
0
0
0
0
0
0
0
0
0
0
0
0
-0.516111
-0.521613
-0.539465
-0.566933
-0.556941
-0.586184
-0.647535
-0.143662
-0.090364
-0.10143
0.455403
11.9663
26.3021
0
0
0
0
0
0
0
0
0
0
0
0
0
0
0
0
0
0
0
0
0
0
0
0
0
0
0
0
0
0
0
0
0
0
0
0
0
-0.470866
-0.490511
-0.00705515
-0.0273716
0.0537273
0.0347723
0.0440593
1.62114
5.12372
6.75968
11.6117
27.2717
0
0
0
0
0
0
0
0
0
0
0
0
0
0
0
0
0
0
0
0
0
0
0
0
0
0
0
0
0
0
0
0
0
0
0
0
0
0
0.0855285
0.223493
1.64348
1.75708
3.48516
5.27027
7.97334
7.89527
5.98596
8.49533
41.2731
0
0
0
0
0
0
0
0
0
0
0
0
0
0
0
0
0
0
0
0
0
0
0
0
0
0
0
0
0
0
0
0
0
0
0
0
0
0
0
9.36633
9.33066
8.04142
9.25902
7.69325
7.78758
9.09454
10.208
11.1703
21.7759
3.2041
0
0
0
0
0
0
0
0
0
0
0
0
0
0
0
0
0
0
0
0
0
0
0
0
0
0
0
0
0
0
0
0
0
0
0
0
0
0
0
7.92952
10.0992
10.1145
8.86149
11.2589
12.4355
10.8064
8.57914
8.60392
43.2779
0
0
0
0
0
0
0
0
0
0
0
0
0
0
0
0
0
0
0
0
0
0
0
0
0
0
0
0
0
0
0
0
0
0
0
0
0
0
0
0
13.2058
10.8439
11.0393
13.0106
10.7272
10.2862
9.48307
9.57063
8.67562
33.2233
0
0
0
0
0
0
0
0
0
0
0
0
0
0
0
0
0
0
0
0
0
0
0
0
0
0
0
0
0
0
0
0
0
0
0
0
0
0
0
0
8.71388
9.82855
9.83715
7.65861
8.9401
7.02241
6.34758
6.44313
5.90605
26.1906
0
0
0
0
0
0
0
0
0
0
0
0
0
0
0
0
0
0
0
0
0
0
0
0
0
0
0
0
0
0
0
0
0
0
0
0
0
0
0
0
7.061
5.55892
5.71513
6.83869
5.56628
5.6724
5.42452
5.43401
4.26976
17.1298
0
0
0
0
0
0
0
0
0
0
0
0
0
0
0
0
0
0
0
0
0
0
0
0
0
0
0
0
0
0
0
0
0
0
0
0
0
0
0
0
6.55202
6.55536
6.55982
5.31204
5.40986
6.30896
5.08555
5.09432
5.2091
10.3371
0
0
0
0
0
0
0
0
0
0
0
0
0
0
0
0
0
0
0
0
0
0
0
0
0
0
0
0
0
0
0
0
0
0
0
0
0
0
0
0
5.52783
5.53996
5.54196
5.54121
5.54439
4.52522
5.16545
5.22779
16.4546
0
0
0
0
0
0
0
0
0
0
0
0
0
0
0
0
0
0
0
0
0
0
0
0
0
0
0
0
0
0
0
0
0
0
0
0
0
0
0
0
0
3.60674
3.66202
3.98033
3.98143
3.98244
3.98396
3.23505
3.31189
11.5415
0
0
0
0
0
0
0
0
0
0
0
0
0
0
0
0
0
0
0
0
0
0
0
0
0
0
0
0
0
0
0
0
0
0
0
0
0
0
0
0
0
6.01719
6.36025
5.75447
5.75462
5.75506
5.75536
5.75588
5.76119
8.30564
0
0
0
0
0
0
0
0
0
0
0
0
0
0
0
0
0
0
0
0
0
0
0
0
0
0
0
0
0
0
0
0
0
0
0
0
0
0
0
0
0
3.29611
2.74112
2.74112
2.74112
2.74112
2.74112
2.74112
2.74112
2.74112
0
0
0
0
0
0
0
0
0
0
0
0
0
0
0
0
0
0
0
0
0
0
0
0
0
0
0
0
0
0
0
0
0
0
0
0
0
0
0
0
0
0
0
0
0
0
0
0
0
0
0
0
0
0
0
0
0
0
0
0
0
0
0
0
0
0
0
0
0
0
0
0
0
0
0
0
0
0
0
0
0
0
0
0
0
0
0
0
0
0
0
