# vtk DataFile Version 4.0
Nusif Fluid VTK output
ASCII
DATASET STRUCTURED_POINTS
DIMENSIONS 50 20 1
ORIGIN 0 0 0 
SPACING 0.2 0.2 1
POINT_DATA 1000 

VECTORS velocity double
0.0443045 -0.0449766  0
0.132597 -0.0459988  0
0.221723 -0.0467747  0
0.313508 -0.0478744  0
0.408179 -0.0497968  0
0.506731 -0.0519579  0
0.610436 -0.054868  0
0.720446 -0.0583051  0
0.838096 -0.0624441  0
0.964091 -0.0667971  0
1.09853 -0.0708632  0
1.23986 -0.0737026  0
1.38422 -0.0738985  0
1.52581 -0.0709414  0
1.65849 -0.0650014  0
1.77871 -0.0584999  0
1.88659 -0.0527931  0
1.98323 -0.0472227  0
2.06718 -0.0399827  0
2.13698 -0.0332383  0
2.19455 -0.0276489  0
2.24321 -0.0240245  0
2.28671 -0.022802  0
2.32876 -0.0226538  0
2.36917 -0.0208185  0
2.40021 -0.0134681  0
2.41671 -0.00636813  0
2.42617 -0.00626545  0
2.43754 -0.00829867  0
2.44252 8.22741e-05  0
2.42842 0.0107919  0
2.42606 -0.0100524  0
1.21806 0.00336377  0
0 0  0
0 0  0
0 0  0
0 0  0
0 0  0
0 0  0
0 0  0
0 0  0
0 0  0
0 0  0
0 0  0
0 0  0
0 0  0
0 0  0
0 0  0
0 0  0
0 0  0
0.0434082 -0.135571  0
0.131086 -0.137299  0
0.220201 -0.139801  0
0.310876 -0.143459  0
0.404429 -0.14871  0
0.501777 -0.155175  0
0.603736 -0.163605  0
0.711549 -0.173832  0
0.826442 -0.185841  0
0.949226 -0.198606  0
1.07984 -0.210587  0
1.21737 -0.219306  0
1.35827 -0.220053  0
1.49616 -0.210766  0
1.62315 -0.191329  0
1.73558 -0.171384  0
1.8364 -0.155306  0
1.92877 -0.140215  0
2.00898 -0.117714  0
2.07459 -0.0975132  0
2.12873 -0.0814347  0
2.17446 -0.071151  0
2.21642 -0.0675057  0
2.25859 -0.0687215  0
2.30264 -0.0657229  0
2.34027 -0.0435398  0
2.3598 -0.0188492  0
2.36952 -0.0194444  0
2.38509 -0.028513  0
2.40432 -0.0103724  0
2.41126 0.0235644  0
2.40928 -0.0201048  0
1.20464 -0.00668865  0
0 0  0
0 0  0
0 0  0
0 0  0
0 0  0
0 0  0
0 0  0
0 0  0
0 0  0
0 0  0
0 0  0
0 0  0
0 0  0
0 0  0
0 0  0
0 0  0
0 0  0
0.0429536 -0.225582  0
0.129249 -0.227615  0
0.216717 -0.231787  0
0.305959 -0.237995  0
0.397732 -0.245997  0
0.492578 -0.256339  0
0.591268 -0.269507  0
0.694981 -0.285886  0
0.804569 -0.304822  0
0.92052 -0.324788  0
1.0422 -0.343192  0
1.16986 -0.358357  0
1.30222 -0.360736  0
1.43246 -0.344693  0
1.54842 -0.306804  0
1.64674 -0.273201  0
1.73639 -0.250468  0
1.82364 -0.230969  0
1.8997 -0.189738  0
1.96058 -0.158421  0
2.01352 -0.13376  0
2.05987 -0.117648  0
2.10194 -0.111419  0
2.14384 -0.115079  0
2.18929 -0.115591  0
2.23367 -0.0820646  0
2.26844 -0.0393541  0
2.29031 -0.0338311  0
2.30576 -0.0484068  0
2.31374 -0.0209094  0
2.38433 0.00231778  0
2.43211 -0.0100524  0
1.20464 -0.0100524  0
0 0  0
0 0  0
0 0  0
0 0  0
0 0  0
0 0  0
0 0  0
0 0  0
0 0  0
0 0  0
0 0  0
0 0  0
0 0  0
0 0  0
0 0  0
0 0  0
0 0  0
0.04216 -0.313622  0
0.126902 -0.316788  0
0.212764 -0.322527  0
0.300305 -0.330621  0
0.389795 -0.341087  0
0.481447 -0.354257  0
0.575779 -0.371101  0
0.673528 -0.392156  0
0.775493 -0.416624  0
0.881626 -0.441583  0
0.987463 -0.460388  0
1.09545 -0.483271  0
1.21098 -0.490149  0
1.32863 -0.46964  0
1.43095 -0.406602  0
1.51504 -0.362313  0
1.59619 -0.338591  0
1.67917 -0.31945  0
1.75757 -0.26053  0
1.83007 -0.224276  0
1.89529 -0.189179  0
1.9526 -0.169131  0
2.00428 -0.157025  0
2.04044 -0.150588  0
2.0731 -0.161462  0
2.09319 -0.103986  0
2.18179 -0.0788659  0
2.29163 -0.0206522  0
2.29556 -0.0281924  0
2.296 -0.0104547  0
1.15687 -0.0104547  0
0 0  0
0 0  0
0 0  0
0 0  0
0 0  0
0 0  0
0 0  0
0 0  0
0 0  0
0 0  0
0 0  0
0 0  0
0 0  0
0 0  0
0 0  0
0 0  0
0 0  0
0 0  0
0 0  0
0.0413269 -0.400209  0
0.124563 -0.404414  0
0.209129 -0.411825  0
0.294903 -0.421123  0
0.381706 -0.433328  0
0.469998 -0.448494  0
0.55944 -0.467144  0
0.649077 -0.490032  0
0.741249 -0.519384  0
0.837155 -0.547356  0
0.9238 -0.553565  0
1.00232 -0.583071  0
1.09002 -0.600021  0
1.18602 -0.579877  0
1.28005 -0.497561  0
1.37217 -0.450807  0
1.45179 -0.414069  0
1.48459 -0.362946  0
1.62094 -0.329996  0
1.79075 -0.13013  0
1.86377 -0.109205  0
1.93371 -0.0986091  0
1.98725 -0.0903091  0
2.04091 -0.0815767  0
2.04351 -0.0907757  0
2.0544 -0.0519929  0
1.04659 -0.0519929  0
0 0  0
0 0  0
0 0  0
0 0  0
0 0  0
0 0  0
0 0  0
0 0  0
0 0  0
0 0  0
0 0  0
0 0  0
0 0  0
0 0  0
0 0  0
0 0  0
0 0  0
0 0  0
0 0  0
0 0  0
0 0  0
0 0  0
0 0  0
0.0406932 -0.485431  0
0.122423 -0.49058  0
0.205449 -0.499666  0
0.28864 -0.508655  0
0.372139 -0.522572  0
0.458157 -0.540088  0
0.541065 -0.55443  0
0.619142 -0.57697  0
0.698864 -0.610816  0
0.782538 -0.641966  0
0.856804 -0.624721  0
0.926181 -0.663058  0
0.976165 -0.660942  0
0.9882 -0.63021  0
1.13415 -0.586541  0
1.32417 -0.248811  0
1.38445 -0.223433  0
1.44262 -0.181473  0
0.742293 -0.181473  0
0 0  0
0 0  0
0 0  0
0 0  0
0 0  0
0 0  0
0 0  0
0 0  0
0 0  0
0 0  0
0 0  0
0 0  0
0 0  0
0 0  0
0 0  0
0 0  0
0 0  0
0 0  0
0 0  0
0 0  0
0 0  0
0 0  0
0 0  0
0 0  0
0 0  0
0 0  0
0 0  0
0 0  0
0 0  0
0 0  0
0 0  0
0.0401544 -0.569476  0
0.120705 -0.575304  0
0.200451 -0.584166  0
0.279491 -0.592814  0
0.357907 -0.606852  0
0.437492 -0.627949  0
0.512962 -0.629845  0
0.584033 -0.653928  0
0.646288 -0.679057  0
0.672083 -0.686428  0
0.802586 -0.671289  0
0.934595 -0.350503  0
0.940767 -0.336489  0
0.966817 -0.315105  0
0.4941 -0.315105  0
0 0  0
0 0  0
0 0  0
0 0  0
0 0  0
0 0  0
0 0  0
0 0  0
0 0  0
0 0  0
0 0  0
0 0  0
0 0  0
0 0  0
0 0  0
0 0  0
0 0  0
0 0  0
0 0  0
0 0  0
0 0  0
0 0  0
0 0  0
0 0  0
0 0  0
0 0  0
0 0  0
0 0  0
0 0  0
0 0  0
0 0  0
0 0  0
0 0  0
0 0  0
0 0  0
0.0425516 -0.65379  0
0.118345 -0.650573  0
0.198822 -0.67235  0
0.269794 -0.657881  0
0.325042 -0.67872  0
0.356552 -0.67044  0
0.465028 -0.667448  0
0.604231 -0.345194  0
0.644308 -0.352426  0
0.662871 -0.343214  0
0.336042 -0.343214  0
0 0  0
0 0  0
0 0  0
0 0  0
0 0  0
0 0  0
0 0  0
0 0  0
0 0  0
0 0  0
0 0  0
0 0  0
0 0  0
0 0  0
0 0  0
0 0  0
0 0  0
0 0  0
0 0  0
0 0  0
0 0  0
0 0  0
0 0  0
0 0  0
0 0  0
0 0  0
0 0  0
0 0  0
0 0  0
0 0  0
0 0  0
0 0  0
0 0  0
0 0  0
0 0  0
0 0  0
0 0  0
0 0  0
0 0  0
0.0362887 -0.348171  0
0.129967 -0.341908  0
0.197724 -0.359792  0
0.265117 -0.34081  0
0.319452 -0.355115  0
0.336657 -0.33522  0
0.178276 -0.33522  0
0 0  0
0 0  0
0 0  0
0 0  0
0 0  0
0 0  0
0 0  0
0 0  0
0 0  0
0 0  0
0 0  0
0 0  0
0 0  0
0 0  0
0 0  0
0 0  0
0 0  0
0 0  0
0 0  0
0 0  0
0 0  0
0 0  0
0 0  0
0 0  0
0 0  0
0 0  0
0 0  0
0 0  0
0 0  0
0 0  0
0 0  0
0 0  0
0 0  0
0 0  0
0 0  0
0 0  0
0 0  0
0 0  0
0 0  0
0 0  0
0 0  0
0 0  0
0 0  0
0 0  0
0 0  0
0 0  0
0 0  0
0 0  0
0 0  0
0 0  0
0 0  0
0 0  0
0 0  0
0 0  0
0 0  0
0 0  0
0 0  0
0 0  0
0 0  0
0 0  0
0 0  0
0 0  0
0 0  0
0 0  0
0 0  0
0 0  0
0 0  0
0 0  0
0 0  0
0 0  0
0 0  0
0 0  0
0 0  0
0 0  0
0 0  0
0 0  0
0 0  0
0 0  0
0 0  0
0 0  0
0 0  0
0 0  0
0 0  0
0 0  0
0 0  0
0 0  0
0 0  0
0 0  0
0 0  0
0 0  0
0 0  0
0 0  0
0 0  0
0 0  0
0 0  0
0 0  0
0 0  0
0 0  0
0 0  0
0 0  0
0 0  0
0 0  0
0 0  0
0 0  0
0 0  0
0 0  0
0 0  0
0 0  0
0 0  0
0 0  0
0 0  0
0 0  0
0 0  0
0 0  0
0 0  0
0 0  0
0 0  0
0 0  0
0 0  0
0 0  0
0 0  0
0 0  0
0 0  0
0 0  0
0 0  0
0 0  0
0 0  0
0 0  0
0 0  0
0 0  0
0 0  0
0 0  0
0 0  0
0 0  0
0 0  0
0 0  0
0 0  0
0 0  0
0 0  0
0 0  0
0 0  0
0 0  0
0 0  0
0 0  0
0 0  0
0 0  0
0 0  0
0 0  0
0 0  0
0 0  0
0 0  0
0 0  0
0 0  0
0 0  0
0 0  0
0 0  0
0 0  0
0 0  0
0 0  0
0 0  0
0 0  0
0 0  0
0 0  0
0 0  0
0 0  0
0 0  0
0 0  0
0 0  0
0 0  0
0 0  0
0 0  0
0 0  0
0 0  0
0 0  0
0 0  0
0 0  0
0 0  0
0 0  0
0 0  0
0 0  0
0 0  0
0 0  0
0 0  0
0 0  0
0 0  0
0 0  0
0 0  0
0 0  0
0 0  0
0 0  0
0 0  0
0 0  0
0 0  0
0 0  0
0 0  0
0 0  0
0 0  0
0 0  0
0 0  0
0 0  0
0 0  0
0 0  0
0 0  0
0 0  0
0 0  0
0 0  0
0 0  0
0 0  0
0 0  0
0 0  0
0 0  0
0 0  0
0 0  0
0 0  0
0 0  0
0 0  0
0 0  0
0 0  0
0 0  0
0 0  0
0 0  0
0 0  0
0 0  0
0 0  0
0 0  0
0 0  0
0 0  0
0 0  0
0 0  0
0 0  0
0 0  0
0 0  0
0 0  0
0 0  0
0 0  0
0 0  0
0 0  0
0 0  0
0 0  0
0 0  0
0 0  0
0 0  0
0 0  0
0 0  0
0 0  0
0 0  0
0 0  0
0 0  0
0 0  0
0 0  0
0 0  0
0 0  0
0 0  0
0 0  0
0 0  0
0 0  0
0 0  0
0 0  0
0 0  0
0 0  0
0 0  0
0 0  0
0 0  0
0 0  0
0 0  0
0 0  0
0 0  0
0 0  0
0 0  0
0 0  0
0 0  0
0 0  0
0 0  0
0 0  0
0 0  0
0 0  0
0 0  0
0 0  0
0 0  0
0 0  0
0 0  0
0 0  0
0 0  0
0 0  0
0 0  0
0 0  0
0 0  0
0 0  0
0 0  0
0 0  0
0 0  0
0 0  0
0 0  0
0 0  0
0 0  0
0 0  0
0 0  0
0 0  0
0 0  0
0 0  0
0 0  0
0 0  0
0 0  0
0 0  0
0 0  0
0 0  0
0 0  0
0 0  0
0 0  0
0 0  0
0 0  0
0 0  0
0 0  0
0 0  0
0 0  0
0 0  0
0 0  0
0 0  0
0 0  0
0 0  0
0 0  0
0 0  0
0 0  0
0 0  0
0 0  0
0 0  0
0 0  0
0 0  0
0 0  0
0 0  0
0 0  0
0 0  0
0 0  0
0 0  0
0 0  0
0 0  0
0 0  0
0 0  0
0 0  0
0 0  0
0 0  0
0 0  0
0 0  0
0 0  0
0 0  0
0 0  0
0 0  0
0 0  0
0 0  0
0 0  0
0 0  0
0 0  0
0 0  0
0 0  0
0 0  0
0 0  0
0 0  0
0 0  0
0 0  0
0 0  0
0 0  0
0 0  0
0 0  0
0 0  0
0 0  0
0 0  0
0 0  0
0 0  0
0 0  0
0 0  0
0 0  0
0 0  0
0 0  0
0 0  0
0 0  0
0 0  0
0 0  0
0 0  0
0 0  0
0 0  0
0 0  0
0 0  0
0 0  0
0 0  0
0 0  0
0 0  0
0 0  0
0 0  0
0 0  0
0 0  0
0 0  0
0 0  0
0 0  0
0 0  0
0 0  0
0 0  0
0 0  0
0 0  0
0 0  0
0 0  0
0 0  0
0 0  0
0 0  0
0 0  0
0 0  0
0 0  0
0 0  0
0 0  0
0 0  0
0 0  0
0 0  0
0 0  0
0 0  0
0 0  0
0 0  0
0 0  0
0 0  0
0 0  0
0 0  0
0 0  0
0 0  0
0 0  0
0 0  0
0 0  0
0 0  0
0 0  0
0 0  0
0 0  0
0 0  0
0 0  0
0 0  0
0 0  0
0 0  0
0 0  0
0 0  0
0 0  0
0 0  0
0 0  0
0 0  0
0 0  0
0 0  0
0 0  0
0 0  0
0 0  0
0 0  0
0 0  0
0 0  0
0 0  0
0 0  0
0 0  0
0 0  0
0 0  0
0 0  0
0 0  0
0 0  0
0 0  0
0 0  0
0 0  0
0 0  0
0 0  0
0 0  0
0 0  0
0 0  0
0 0  0
0 0  0
0 0  0
0 0  0
0 0  0
0 0  0
0 0  0
0 0  0
0 0  0
0 0  0
0 0  0
0 0  0
0 0  0
0 0  0
0 0  0
0 0  0
0 0  0
0 0  0
0 0  0
0 0  0
0 0  0
0 0  0
0 0  0
0 0  0
0 0  0
0 0  0
0 0  0
0 0  0
0 0  0
0 0  0
0 0  0
0 0  0
0 0  0
0 0  0
0 0  0
0 0  0
0 0  0
0 0  0
0 0  0
0 0  0
0 0  0
0 0  0
0 0  0
0 0  0
0 0  0
0 0  0
0 0  0
0 0  0
0 0  0
0 0  0
0 0  0
0 0  0
0 0  0
0 0  0
0 0  0
0 0  0
0 0  0
0 0  0
0 0  0
0 0  0
0 0  0
0 0  0
0 0  0
0 0  0
0 0  0
0 0  0
0 0  0
0 0  0
0 0  0
0 0  0
0 0  0
0 0  0
0 0  0
0 0  0
0 0  0
0 0  0
0 0  0
0 0  0
0 0  0
0 0  0
0 0  0
0 0  0
0 0  0
0 0  0
0 0  0
0 0  0
0 0  0
0 0  0
0 0  0
0 0  0
0 0  0
0 0  0
0 0  0
0 0  0
0 0  0
0 0  0
0 0  0
0 0  0
0 0  0
0 0  0
0 0  0
0 0  0
0 0  0
0 0  0
0 0  0
0 0  0
0 0  0
0 0  0
0 0  0
0 0  0
0 0  0
0 0  0
0 0  0
0 0  0
0 0  0
0 0  0
0 0  0
0 0  0
0 0  0
0 0  0
0 0  0
0 0  0
0 0  0
0 0  0
0 0  0
0 0  0
0 0  0
0 0  0
0 0  0
0 0  0

SCALARS pressure double 1
LOOKUP_TABLE default
1.38857
1.38803
1.38869
1.38675
1.3797
1.37133
1.35775
1.34127
1.31873
1.28881
1.24925
1.19711
1.13077
1.05121
0.964364
0.878
0.796195
0.720675
0.653283
0.601427
0.565069
0.537561
0.513675
0.489392
0.459269
0.420715
0.380561
0.34516
0.304122
0.241667
0.145347
0
0
0
0
0
0
0
0
0
0
0
0
0
0
0
0
0
0
0
1.18272
1.18737
1.18626
1.18127
1.17452
1.16268
1.14746
1.12736
1.10246
1.0695
1.02711
0.973508
0.905714
0.824805
0.737323
0.654432
0.577594
0.503731
0.434663
0.388958
0.358143
0.336865
0.321082
0.300625
0.27365
0.231826
0.184811
0.159132
0.134492
0.0843347
0
0.00327057
0
0
0
0
0
0
0
0
0
0
0
0
0
0
0
0
0
0
0.979334
0.980604
0.978629
0.972407
0.962497
0.946604
0.927202
0.902869
0.872741
0.834523
0.786991
0.731789
0.662804
0.578881
0.488384
0.414864
0.349201
0.277633
0.197539
0.164832
0.148126
0.140397
0.13549
0.125751
0.111801
0.0607359
-0.0219946
-0.019297
0
-0.024917
0
0
0
0
0
0
0
0
0
0
0
0
0
0
0
0
0
0
0
0
0.771642
0.77204
0.768425
0.760451
0.745872
0.724912
0.698133
0.668502
0.632757
0.586306
0.529318
0.476033
0.409157
0.321356
0.216917
0.166816
0.125489
0.0621485
-0.0761217
-0.064095
-0.0623466
-0.0484574
-0.0397679
-0.0397783
0
-0.05849
0
0
0
0
0
0
0
0
0
0
0
0
0
0
0
0
0
0
0
0
0
0
0
0
0.56122
0.56125
0.557058
0.54675
0.528379
0.499363
0.461057
0.426947
0.388478
0.331008
0.250188
0.214124
0.159577
0.0755878
-0.0994171
-0.0824567
-0.0726084
-0.0680117
0
0
0
0
0
0
0
0
0
0
0
0
0
0
0
0
0
0
0
0
0
0
0
0
0
0
0
0
0
0
0
0
0.349116
0.348536
0.345699
0.333963
0.314863
0.275038
0.210396
0.180361
0.151765
0.0870088
-0.080862
-0.0358579
-0.0647942
-0.0667422
0
0
0
0
0
0
0
0
0
0
0
0
0
0
0
0
0
0
0
0
0
0
0
0
0
0
0
0
0
0
0
0
0
0
0
0
0.134937
0.133195
0.136721
0.123169
0.116511
0.0691842
-0.0809686
-0.0716645
-0.0535592
-0.05775
0
0
0
0
0
0
0
0
0
0
0
0
0
0
0
0
0
0
0
0
0
0
0
0
0
0
0
0
0
0
0
0
0
0
0
0
0
0
0
0
-0.0784318
-0.0908894
-0.0572406
-0.0976878
-0.0417057
-0.0356772
0
0
0
0
0
0
0
0
0
0
0
0
0
0
0
0
0
0
0
0
0
0
0
0
0
0
0
0
0
0
0
0
0
0
0
0
0
0
0
0
0
0
0
0
0
0
0
0
0
0
0
0
0
0
0
0
0
0
0
0
0
0
0
0
0
0
0
0
0
0
0
0
0
0
0
0
0
0
0
0
0
0
0
0
0
0
0
0
0
0
0
0
0
0
0
0
0
0
0
0
0
0
0
0
0
0
0
0
0
0
0
0
0
0
0
0
0
0
0
0
0
0
0
0
0
0
0
0
0
0
0
0
0
0
0
0
0
0
0
0
0
0
0
0
0
0
0
0
0
0
0
0
0
0
0
0
0
0
0
0
0
0
0
0
0
0
0
0
0
0
0
0
0
0
0
0
0
0
0
0
0
0
0
0
0
0
0
0
0
0
0
0
0
0
0
0
0
0
0
0
0
0
0
0
0
0
0
0
0
0
0
0
0
0
0
0
0
0
0
0
0
0
0
0
0
0
0
0
0
0
0
0
0
0
0
0
0
0
0
0
0
0
0
0
0
0
0
0
0
0
0
0
0
0
0
0
0
0
0
0
0
0
0
0
0
0
0
0
0
0
0
0
0
0
0
0
0
0
0
0
0
0
0
0
0
0
0
0
0
0
0
0
0
0
0
0
0
0
0
0
0
0
0
0
0
0
0
0
0
0
0
0
0
0
0
0
0
0
0
0
0
0
0
0
0
0
0
0
0
0
0
0
0
0
0
0
0
0
0
0
0
0
0
0
0
0
0
0
0
0
0
0
0
0
0
0
0
0
0
0
0
0
0
0
0
0
0
0
0
0
0
0
0
0
0
0
0
0
0
0
0
0
0
0
0
0
0
0
0
0
0
0
0
0
0
0
0
0
0
0
0
0
0
0
0
0
0
0
0
0
0
0
0
0
0
0
0
0
0
0
0
0
0
0
0
0
0
0
0
0
0
0
0
0
0
0
0
0
0
0
0
0
0
0
0
0
0
0
0
0
0
0
0
0
0
0
0
0
0
0
0
0
0
0
0
0
0
0
0
0
0
0
0
0
0
0
0
0
0
0
0
0
0
0
0
0
0
0
0
0
0
0
0
0
0
0
0
0
0
0
0
0
0
0
0
0
0
0
0
0
0
0
0
0
0
0
0
0
0
0
0
0
0
0
0
0
0
0
0
0
0
0
0
0
0
0
0
0
0
0
0
0
0
0
0
0
0
0
0
0
0
0
0
0
0
0
0
0
0
0
0
0
0
0
0
0
0
0
0
0
0
0
0
0
0
0
0
0
0
0
0
0
0
0
0
0
0
0
0
0
0
0
0
0
0
0
0
0
0
0
0
0
0
0
0
0
0
0
0
0
0
0
0
0
0
0
0
0
0
0
0
0
0
0
0
0
0
0
0
0
0
0
0
0
0
0
0
0
0
0
0
0
0
0
SCALARS rhs double 1
LOOKUP_TABLE default
-4.92414
-5.08559
-5.13183
-5.16777
-5.20188
-5.30063
-5.34875
-5.46448
-5.59369
-5.72535
-5.86399
-5.95247
-5.953
-5.8496
-5.66561
-5.48664
-5.34321
-5.22086
-5.08357
-4.96731
-4.93073
-4.89277
-4.88423
-4.85113
-4.82363
-4.79366
-4.77084
-4.78118
-4.77847
-4.77971
-4.85915
0.587574
0
0
0
0
0
0
0
0
0
0
0
0
0
0
0
0
0
0
0.0290115
-0.150621
-0.17499
-0.19513
-0.243773
-0.274697
-0.352172
-0.415454
-0.519483
-0.633059
-0.731593
-0.806704
-0.781498
-0.650244
-0.433021
-0.260169
-0.172588
-0.0812887
0.0739772
0.143384
0.147322
0.186327
0.160424
0.104457
0.246183
0.33416
0.249028
0.204858
0.243803
0.347003
0.509759
0.403581
0
0
0
0
0
0
0
0
0
0
0
0
0
0
0
0
0
0
-0.0321685
-0.140729
-0.169012
-0.193342
-0.238952
-0.253837
-0.322437
-0.393882
-0.468344
-0.559226
-0.636352
-0.691436
-0.644807
-0.450312
-0.143297
-0.0214496
-0.0237443
0.0583936
0.273582
0.266495
0.254155
0.218506
0.152488
0.157404
0.281822
0.522982
0.382306
-0.357407
0.21808
0.403581
0
0
0
0
0
0
0
0
0
0
0
0
0
0
0
0
0
0
0
0
-0.026557
-0.146472
-0.165962
-0.19003
-0.200243
-0.235891
-0.280648
-0.32829
-0.383606
-0.441004
-0.445503
-0.490777
-0.422133
-0.123879
0.236615
0.188451
0.0945183
0.262372
21.07
14.6862
10.4307
5.64879
2.59042
-0.197482
0.21808
0.403581
0
0
0
0
0
0
0
0
0
0
0
0
0
0
0
0
0
0
0
0
0
0
0
0
-0.0408801
-0.139855
-0.157845
-0.171574
-0.172059
-0.202504
-0.242763
-0.240749
-0.286122
-0.301173
-0.17989
-0.166025
-0.104382
0.310845
37.2159
28.5399
16.5879
9.00999
0
0
0
0
0
0
0
0
0
0
0
0
0
0
0
0
0
0
0
0
0
0
0
0
0
0
0
0
0
0
0
0
-0.0601776
-0.133858
-0.149201
-0.137857
-0.141098
-0.168085
-0.152006
-0.0994129
-0.118197
-0.0990972
0.0701976
-0.112127
10.4567
33.2779
0
0
0
0
0
0
0
0
0
0
0
0
0
0
0
0
0
0
0
0
0
0
0
0
0
0
0
0
0
0
0
0
0
0
0
0
-0.0215902
-0.0909812
-0.0478563
-0.085757
-0.0176688
-0.0503405
0.290525
0.169727
-0.818
0.115588
2.53607
14.3387
26.3021
0
0
0
0
0
0
0
0
0
0
0
0
0
0
0
0
0
0
0
0
0
0
0
0
0
0
0
0
0
0
0
0
0
0
0
0
0
-0.318363
-0.364282
-0.42031
-0.813762
-0.857113
0.137284
0.916648
3.70181
7.89906
8.9678
11.6117
27.2717
0
0
0
0
0
0
0
0
0
0
0
0
0
0
0
0
0
0
0
0
0
0
0
0
0
0
0
0
0
0
0
0
0
0
0
0
0
0
2.45787
2.59584
4.01582
4.53242
6.43299
7.47839
9.23983
7.89527
5.98596
8.49533
41.2731
0
0
0
0
0
0
0
0
0
0
0
0
0
0
0
0
0
0
0
0
0
0
0
0
0
0
0
0
0
0
0
0
0
0
0
0
0
0
0
9.36633
9.33066
8.04142
9.25902
7.69325
7.78758
9.09454
10.208
11.1703
21.7759
3.2041
0
0
0
0
0
0
0
0
0
0
0
0
0
0
0
0
0
0
0
0
0
0
0
0
0
0
0
0
0
0
0
0
0
0
0
0
0
0
0
7.92952
10.0992
10.1145
8.86149
11.2589
12.4355
10.8064
8.57914
8.60392
43.2779
0
0
0
0
0
0
0
0
0
0
0
0
0
0
0
0
0
0
0
0
0
0
0
0
0
0
0
0
0
0
0
0
0
0
0
0
0
0
0
0
13.2058
10.8439
11.0393
13.0106
10.7272
10.2862
9.48307
9.57063
8.67562
33.2233
0
0
0
0
0
0
0
0
0
0
0
0
0
0
0
0
0
0
0
0
0
0
0
0
0
0
0
0
0
0
0
0
0
0
0
0
0
0
0
0
8.71388
9.82855
9.83715
7.65861
8.9401
7.02241
6.34758
6.44313
5.90605
26.1906
0
0
0
0
0
0
0
0
0
0
0
0
0
0
0
0
0
0
0
0
0
0
0
0
0
0
0
0
0
0
0
0
0
0
0
0
0
0
0
0
7.061
5.55892
5.71513
6.83869
5.56628
5.6724
5.42452
5.43401
4.26976
17.1298
0
0
0
0
0
0
0
0
0
0
0
0
0
0
0
0
0
0
0
0
0
0
0
0
0
0
0
0
0
0
0
0
0
0
0
0
0
0
0
0
6.55202
6.55536
6.55982
5.31204
5.40986
6.30896
5.08555
5.09432
5.2091
10.3371
0
0
0
0
0
0
0
0
0
0
0
0
0
0
0
0
0
0
0
0
0
0
0
0
0
0
0
0
0
0
0
0
0
0
0
0
0
0
0
0
5.52783
5.53996
5.54196
5.54121
5.54439
4.52522
5.16545
5.22779
16.4546
0
0
0
0
0
0
0
0
0
0
0
0
0
0
0
0
0
0
0
0
0
0
0
0
0
0
0
0
0
0
0
0
0
0
0
0
0
0
0
0
0
3.60674
3.66202
3.98033
3.98143
3.98244
3.98396
3.23505
3.31189
11.5415
0
0
0
0
0
0
0
0
0
0
0
0
0
0
0
0
0
0
0
0
0
0
0
0
0
0
0
0
0
0
0
0
0
0
0
0
0
0
0
0
0
6.01719
6.36025
5.75447
5.75462
5.75506
5.75536
5.75588
5.76119
8.30564
0
0
0
0
0
0
0
0
0
0
0
0
0
0
0
0
0
0
0
0
0
0
0
0
0
0
0
0
0
0
0
0
0
0
0
0
0
0
0
0
0
3.29611
2.74112
2.74112
2.74112
2.74112
2.74112
2.74112
2.74112
2.74112
0
0
0
0
0
0
0
0
0
0
0
0
0
0
0
0
0
0
0
0
0
0
0
0
0
0
0
0
0
0
0
0
0
0
0
0
0
0
0
0
0
0
0
0
0
0
0
0
0
0
0
0
0
0
0
0
0
0
0
0
0
0
0
0
0
0
0
0
0
0
0
0
0
0
0
0
0
0
0
0
0
0
0
0
0
0
0
0
0
0
0
