# vtk DataFile Version 4.0
Nusif Fluid VTK output
ASCII
DATASET STRUCTURED_POINTS
DIMENSIONS 50 20 1
ORIGIN 0 0 0 
SPACING 0.2 0.2 1
POINT_DATA 1000 

VECTORS velocity double
0.0546494 -0.0594118  0
0.164278 -0.0604409  0
0.27626 -0.0618642  0
0.392313 -0.064347  0
0.513685 -0.0675352  0
0.642221 -0.071546  0
0.779228 -0.0761568  0
0.925728 -0.0810104  0
1.08171 -0.0855509  0
1.24536 -0.0886562  0
1.41216 -0.0886484  0
1.57391 -0.08355  0
1.71901 -0.0719784  0
1.83484 -0.0542402  0
1.91042 -0.0317128  0
1.9451 -0.0133164  0
1.9464 0.00168617  0
1.9534 -0.0138563  0
0.983628 0.040815  0
0 0  0
0 0  0
0 0  0
0 0  0
0 0  0
0 0  0
0 0  0
0 0  0
0 0  0
0 0  0
0 0  0
0 0  0
0 0  0
0 0  0
0 0  0
0 0  0
0 0  0
0 0  0
0 0  0
0 0  0
0 0  0
0 0  0
0 0  0
0 0  0
0 0  0
0 0  0
0 0  0
0 0  0
0 0  0
0 0  0
0 0  0
0.0535735 -0.177748  0
0.161704 -0.180321  0
0.272154 -0.184745  0
0.386189 -0.192073  0
0.505514 -0.201598  0
0.631843 -0.213412  0
0.766614 -0.227055  0
0.910596 -0.241547  0
1.06376 -0.25506  0
1.22434 -0.264246  0
1.38752 -0.263872  0
1.54431 -0.247639  0
1.68243 -0.211838  0
1.78925 -0.157736  0
1.85183 -0.0870617  0
1.87323 -0.0347182  0
1.86703 0.0124899  0
1.85791 -0.0277126  0
0.928957 0.0269587  0
0 0  0
0 0  0
0 0  0
0 0  0
0 0  0
0 0  0
0 0  0
0 0  0
0 0  0
0 0  0
0 0  0
0 0  0
0 0  0
0 0  0
0 0  0
0 0  0
0 0  0
0 0  0
0 0  0
0 0  0
0 0  0
0 0  0
0 0  0
0 0  0
0 0  0
0 0  0
0 0  0
0 0  0
0 0  0
0 0  0
0 0  0
0.0519627 -0.293905  0
0.157001 -0.297492  0
0.263997 -0.305269  0
0.374275 -0.317042  0
0.48999 -0.332619  0
0.612421 -0.35195  0
0.742875 -0.374324  0
0.882246 -0.398247  0
1.03053 -0.420496  0
1.18586 -0.435352  0
1.34271 -0.433409  0
1.48998 -0.4028  0
1.61293 -0.338374  0
1.69793 -0.243653  0
1.73772 -0.124133  0
1.74599 -0.0428036  0
1.82661 -0.0105981  0
1.88257 -0.0138563  0
0.928957 -0.0138563  0
0 0  0
0 0  0
0 0  0
0 0  0
0 0  0
0 0  0
0 0  0
0 0  0
0 0  0
0 0  0
0 0  0
0 0  0
0 0  0
0 0  0
0 0  0
0 0  0
0 0  0
0 0  0
0 0  0
0 0  0
0 0  0
0 0  0
0 0  0
0 0  0
0 0  0
0 0  0
0 0  0
0 0  0
0 0  0
0 0  0
0 0  0
0.0498359 -0.405825  0
0.149984 -0.410935  0
0.251882 -0.421678  0
0.357291 -0.43753  0
0.467733 -0.458895  0
0.584443 -0.485458  0
0.708706 -0.516203  0
0.841529 -0.549205  0
0.982957 -0.579922  0
1.13093 -0.599889  0
1.27915 -0.594546  0
1.41357 -0.543972  0
1.5102 -0.437436  0
1.55547 -0.295496  0
1.56549 -0.137569  0
1.65574 -0.0901862  0
0.872996 -0.0214018  0
0 0  0
0 0  0
0 0  0
0 0  0
0 0  0
0 0  0
0 0  0
0 0  0
0 0  0
0 0  0
0 0  0
0 0  0
0 0  0
0 0  0
0 0  0
0 0  0
0 0  0
0 0  0
0 0  0
0 0  0
0 0  0
0 0  0
0 0  0
0 0  0
0 0  0
0 0  0
0 0  0
0 0  0
0 0  0
0 0  0
0 0  0
0 0  0
0 0  0
0.0467194 -0.512463  0
0.140782 -0.519045  0
0.236568 -0.532223  0
0.335455 -0.552067  0
0.438937 -0.578871  0
0.548242 -0.612145  0
0.664564 -0.650811  0
0.788894 -0.692418  0
0.921354 -0.731201  0
1.05974 -0.755626  0
1.19718 -0.745124  0
1.31816 -0.669423  0
1.3908 -0.501898  0
1.40969 -0.310677  0
1.48759 -0.224123  0
0.782745 -0.0687844  0
0 0  0
0 0  0
0 0  0
0 0  0
0 0  0
0 0  0
0 0  0
0 0  0
0 0  0
0 0  0
0 0  0
0 0  0
0 0  0
0 0  0
0 0  0
0 0  0
0 0  0
0 0  0
0 0  0
0 0  0
0 0  0
0 0  0
0 0  0
0 0  0
0 0  0
0 0  0
0 0  0
0 0  0
0 0  0
0 0  0
0 0  0
0 0  0
0 0  0
0 0  0
0.0431933 -0.612549  0
0.129875 -0.620253  0
0.218001 -0.635725  0
0.309094 -0.659295  0
0.40422 -0.690933  0
0.504484 -0.730306  0
0.61115 -0.776297  0
0.725113 -0.82592  0
0.846253 -0.871935  0
0.971342 -0.899004  0
1.09048 -0.878998  0
1.18048 -0.767175  0
1.21417 -0.525952  0
1.31193 -0.418315  0
0.704846 -0.155339  0
0 0  0
0 0  0
0 0  0
0 0  0
0 0  0
0 0  0
0 0  0
0 0  0
0 0  0
0 0  0
0 0  0
0 0  0
0 0  0
0 0  0
0 0  0
0 0  0
0 0  0
0 0  0
0 0  0
0 0  0
0 0  0
0 0  0
0 0  0
0 0  0
0 0  0
0 0  0
0 0  0
0 0  0
0 0  0
0 0  0
0 0  0
0 0  0
0 0  0
0 0  0
0 0  0
0.0389841 -0.704746  0
0.117235 -0.713522  0
0.196767 -0.731047  0
0.27875 -0.757761  0
0.364129 -0.793614  0
0.45395 -0.83843  0
0.549387 -0.89096  0
0.651277 -0.947782  0
0.759106 -0.999724  0
0.868532 -1.02638  0
0.966301 -0.9892  0
1.00986 -0.806027  0
1.11202 -0.66599  0
0.607086 -0.262976  0
0 0  0
0 0  0
0 0  0
0 0  0
0 0  0
0 0  0
0 0  0
0 0  0
0 0  0
0 0  0
0 0  0
0 0  0
0 0  0
0 0  0
0 0  0
0 0  0
0 0  0
0 0  0
0 0  0
0 0  0
0 0  0
0 0  0
0 0  0
0 0  0
0 0  0
0 0  0
0 0  0
0 0  0
0 0  0
0 0  0
0 0  0
0 0  0
0 0  0
0 0  0
0 0  0
0 0  0
0.0343623 -0.788283  0
0.10328 -0.79776  0
0.173236 -0.817032  0
0.245067 -0.846266  0
0.319551 -0.885627  0
0.397692 -0.935062  0
0.48048 -0.993264  0
0.56879 -1.05635  0
0.662325 -1.11321  0
0.756372 -1.13704  0
0.842455 -1.07789  0
0.946138 -0.856089  0
0.504929 -0.403014  0
0 0  0
0 0  0
0 0  0
0 0  0
0 0  0
0 0  0
0 0  0
0 0  0
0 0  0
0 0  0
0 0  0
0 0  0
0 0  0
0 0  0
0 0  0
0 0  0
0 0  0
0 0  0
0 0  0
0 0  0
0 0  0
0 0  0
0 0  0
0 0  0
0 0  0
0 0  0
0 0  0
0 0  0
0 0  0
0 0  0
0 0  0
0 0  0
0 0  0
0 0  0
0 0  0
0 0  0
0 0  0
0.0294573 -0.862286  0
0.0884323 -0.872331  0
0.148087 -0.892815  0
0.209008 -0.923864  0
0.271732 -0.965935  0
0.3371 -1.01893  0
0.405925 -1.0817  0
0.479251 -1.15022  0
0.557484 -1.21179  0
0.63425 -1.22995  0
0.670713 -1.11785  0
0.335357 -1.012  0
0 0  0
0 0  0
0 0  0
0 0  0
0 0  0
0 0  0
0 0  0
0 0  0
0 0  0
0 0  0
0 0  0
0 0  0
0 0  0
0 0  0
0 0  0
0 0  0
0 0  0
0 0  0
0 0  0
0 0  0
0 0  0
0 0  0
0 0  0
0 0  0
0 0  0
0 0  0
0 0  0
0 0  0
0 0  0
0 0  0
0 0  0
0 0  0
0 0  0
0 0  0
0 0  0
0 0  0
0 0  0
0 0  0
0.0244224 -0.926353  0
0.0732789 -0.936789  0
0.122432 -0.957931  0
0.172073 -0.989941  0
0.22255 -1.03378  0
0.274443 -1.08903  0
0.328116 -1.15478  0
0.384624 -1.22765  0
0.446093 -1.29472  0
0.520176 -1.31336  0
0.616337 -1.14931  0
0.335357 -0.558927  0
0 0  0
0 0  0
0 0  0
0 0  0
0 0  0
0 0  0
0 0  0
0 0  0
0 0  0
0 0  0
0 0  0
0 0  0
0 0  0
0 0  0
0 0  0
0 0  0
0 0  0
0 0  0
0 0  0
0 0  0
0 0  0
0 0  0
0 0  0
0 0  0
0 0  0
0 0  0
0 0  0
0 0  0
0 0  0
0 0  0
0 0  0
0 0  0
0 0  0
0 0  0
0 0  0
0 0  0
0 0  0
0 0  0
0.0196365 -0.980657  0
0.0588775 -0.991284  0
0.0980999 -1.01256  0
0.136779 -1.04428  0
0.175117 -1.08896  0
0.213679 -1.14498  0
0.251718 -1.21121  0
0.288905 -1.28559  0
0.324506 -1.35452  0
0.364627 -1.3781  0
0.19379 -1.21474  0
0 0  0
0 0  0
0 0  0
0 0  0
0 0  0
0 0  0
0 0  0
0 0  0
0 0  0
0 0  0
0 0  0
0 0  0
0 0  0
0 0  0
0 0  0
0 0  0
0 0  0
0 0  0
0 0  0
0 0  0
0 0  0
0 0  0
0 0  0
0 0  0
0 0  0
0 0  0
0 0  0
0 0  0
0 0  0
0 0  0
0 0  0
0 0  0
0 0  0
0 0  0
0 0  0
0 0  0
0 0  0
0 0  0
0 0  0
0.0156165 -1.02619  0
0.046892 -1.03698  0
0.0780952 -1.05804  0
0.107337 -1.08736  0
0.134897 -1.13246  0
0.161964 -1.1878  0
0.186893 -1.25203  0
0.208256 -1.32399  0
0.222487 -1.38662  0
0.231163 -1.40514  0
0.117623 -1.29855  0
0 0  0
0 0  0
0 0  0
0 0  0
0 0  0
0 0  0
0 0  0
0 0  0
0 0  0
0 0  0
0 0  0
0 0  0
0 0  0
0 0  0
0 0  0
0 0  0
0 0  0
0 0  0
0 0  0
0 0  0
0 0  0
0 0  0
0 0  0
0 0  0
0 0  0
0 0  0
0 0  0
0 0  0
0 0  0
0 0  0
0 0  0
0 0  0
0 0  0
0 0  0
0 0  0
0 0  0
0 0  0
0 0  0
0 0  0
0.0134185 -1.06555  0
0.0403325 -1.07654  0
0.0662712 -1.09633  0
0.0904334 -1.12309  0
0.112211 -1.16674  0
0.131816 -1.22089  0
0.149252 -1.28198  0
0.160894 -1.34772  0
0.16953 -1.40126  0
0.174411 -1.40922  0
0.0872055 -1.3788  0
0 0  0
0 0  0
0 0  0
0 0  0
0 0  0
0 0  0
0 0  0
0 0  0
0 0  0
0 0  0
0 0  0
0 0  0
0 0  0
0 0  0
0 0  0
0 0  0
0 0  0
0 0  0
0 0  0
0 0  0
0 0  0
0 0  0
0 0  0
0 0  0
0 0  0
0 0  0
0 0  0
0 0  0
0 0  0
0 0  0
0 0  0
0 0  0
0 0  0
0 0  0
0 0  0
0 0  0
0 0  0
0 0  0
0 0  0
0.0150204 -1.09916  0
0.0419411 -1.10712  0
0.0697979 -1.12988  0
0.0953763 -1.14959  0
0.119296 -1.19628  0
0.139728 -1.24174  0
0.155037 -1.30421  0
0.164212 -1.35664  0
0.170848 -1.38139  0
0.175947 -0.704609  0
0.0872055 -0.704609  0
0 0  0
0 0  0
0 0  0
0 0  0
0 0  0
0 0  0
0 0  0
0 0  0
0 0  0
0 0  0
0 0  0
0 0  0
0 0  0
0 0  0
0 0  0
0 0  0
0 0  0
0 0  0
0 0  0
0 0  0
0 0  0
0 0  0
0 0  0
0 0  0
0 0  0
0 0  0
0 0  0
0 0  0
0 0  0
0 0  0
0 0  0
0 0  0
0 0  0
0 0  0
0 0  0
0 0  0
0 0  0
0 0  0
0 0  0
0.0174378 -0.557092  0
0.0577687 -0.559509  0
0.0898968 -0.572919  0
0.127747 -0.579608  0
0.163624 -0.60529  0
0.19113 -0.623937  0
0.209422 -0.656692  0
0.185841 -0.678321  0
0.0821059 -0.678321  0
0 0  0
0 0  0
0 0  0
0 0  0
0 0  0
0 0  0
0 0  0
0 0  0
0 0  0
0 0  0
0 0  0
0 0  0
0 0  0
0 0  0
0 0  0
0 0  0
0 0  0
0 0  0
0 0  0
0 0  0
0 0  0
0 0  0
0 0  0
0 0  0
0 0  0
0 0  0
0 0  0
0 0  0
0 0  0
0 0  0
0 0  0
0 0  0
0 0  0
0 0  0
0 0  0
0 0  0
0 0  0
0 0  0
0 0  0
0 0  0
0 0  0
0 0  0
0 0  0
0 0  0
0 0  0
0 0  0
0 0  0
0 0  0
0 0  0
0 0  0
0 0  0
0 0  0
0 0  0
0 0  0
0 0  0
0 0  0
0 0  0
0 0  0
0 0  0
0 0  0
0 0  0
0 0  0
0 0  0
0 0  0
0 0  0
0 0  0
0 0  0
0 0  0
0 0  0
0 0  0
0 0  0
0 0  0
0 0  0
0 0  0
0 0  0
0 0  0
0 0  0
0 0  0
0 0  0
0 0  0
0 0  0
0 0  0
0 0  0
0 0  0
0 0  0
0 0  0
0 0  0
0 0  0
0 0  0
0 0  0
0 0  0
0 0  0
0 0  0
0 0  0
0 0  0
0 0  0
0 0  0
0 0  0
0 0  0
0 0  0
0 0  0
0 0  0
0 0  0
0 0  0
0 0  0
0 0  0
0 0  0
0 0  0
0 0  0
0 0  0
0 0  0
0 0  0
0 0  0
0 0  0
0 0  0
0 0  0
0 0  0
0 0  0
0 0  0
0 0  0
0 0  0
0 0  0
0 0  0
0 0  0
0 0  0
0 0  0
0 0  0
0 0  0
0 0  0
0 0  0
0 0  0
0 0  0
0 0  0
0 0  0
0 0  0
0 0  0
0 0  0
0 0  0
0 0  0
0 0  0
0 0  0
0 0  0
0 0  0
0 0  0
0 0  0
0 0  0
0 0  0
0 0  0
0 0  0
0 0  0
0 0  0
0 0  0
0 0  0
0 0  0
0 0  0
0 0  0
0 0  0
0 0  0
0 0  0
0 0  0
0 0  0
0 0  0
0 0  0
0 0  0
0 0  0
0 0  0
0 0  0
0 0  0
0 0  0
0 0  0
0 0  0
0 0  0
0 0  0
0 0  0
0 0  0
0 0  0
0 0  0
0 0  0
0 0  0
0 0  0
0 0  0
0 0  0
0 0  0
0 0  0
0 0  0
0 0  0
0 0  0
0 0  0
0 0  0
0 0  0
0 0  0
0 0  0
0 0  0
0 0  0
0 0  0
0 0  0
0 0  0
0 0  0
0 0  0
0 0  0
0 0  0
0 0  0
0 0  0
0 0  0
0 0  0
0 0  0
0 0  0
0 0  0
0 0  0
0 0  0
0 0  0
0 0  0
0 0  0
0 0  0
0 0  0
0 0  0
0 0  0
0 0  0
0 0  0
0 0  0
0 0  0
0 0  0
0 0  0
0 0  0
0 0  0
0 0  0
0 0  0
0 0  0
0 0  0
0 0  0
0 0  0
0 0  0
0 0  0
0 0  0
0 0  0
0 0  0
0 0  0
0 0  0
0 0  0
0 0  0
0 0  0
0 0  0
0 0  0
0 0  0
0 0  0
0 0  0
0 0  0
0 0  0
0 0  0
0 0  0
0 0  0
0 0  0
0 0  0
0 0  0
0 0  0
0 0  0
0 0  0
0 0  0
0 0  0
0 0  0
0 0  0
0 0  0
0 0  0
0 0  0
0 0  0
0 0  0
0 0  0
0 0  0
0 0  0
0 0  0
0 0  0
0 0  0
0 0  0
0 0  0
0 0  0
0 0  0
0 0  0
0 0  0
0 0  0
0 0  0
0 0  0
0 0  0
0 0  0
0 0  0
0 0  0
0 0  0
0 0  0
0 0  0
0 0  0
0 0  0
0 0  0

SCALARS pressure double 1
LOOKUP_TABLE default
2.89813
2.88341
2.85638
2.81136
2.7496
2.66706
2.56134
2.42843
2.2639
2.06305
1.825
1.55359
1.2602
0.963214
0.682167
0.431097
0.21055
0
0
0
0
0
0
0
0
0
0
0
0
0
0
0
0
0
0
0
0
0
0
0
0
0
0
0
0
0
0
0
0
0
2.68049
2.66785
2.63856
2.59344
2.53073
2.44817
2.34182
2.20749
2.04042
1.83699
1.59569
1.32154
1.0268
0.730133
0.451296
0.205367
0
-0.0300552
0
0
0
0
0
0
0
0
0
0
0
0
0
0
0
0
0
0
0
0
0
0
0
0
0
0
0
0
0
0
0
0
2.4546
2.44177
2.41076
2.3664
2.30388
2.22055
2.11262
1.97615
1.80514
1.5968
1.34979
1.07037
0.773803
0.478761
0.206202
-0.0504479
0
0
0
0
0
0
0
0
0
0
0
0
0
0
0
0
0
0
0
0
0
0
0
0
0
0
0
0
0
0
0
0
0
0
2.22193
2.20731
2.17833
2.13423
2.07116
1.98681
1.87705
1.73699
1.56077
1.34538
1.09138
0.807596
0.515266
0.233204
0.000832303
0
0
0
0
0
0
0
0
0
0
0
0
0
0
0
0
0
0
0
0
0
0
0
0
0
0
0
0
0
0
0
0
0
0
0
1.98409
1.97087
1.94195
1.89713
1.83408
1.74889
1.6373
1.49371
1.31224
1.08877
0.826825
0.542557
0.277455
0.0162316
0
0
0
0
0
0
0
0
0
0
0
0
0
0
0
0
0
0
0
0
0
0
0
0
0
0
0
0
0
0
0
0
0
0
0
0
1.74547
1.73083
1.70234
1.65868
1.59645
1.51191
1.39976
1.25311
1.06597
0.833076
0.55932
0.272092
0.103786
0
0
0
0
0
0
0
0
0
0
0
0
0
0
0
0
0
0
0
0
0
0
0
0
0
0
0
0
0
0
0
0
0
0
0
0
0
1.5053
1.49155
1.46457
1.42263
1.36237
1.27927
1.16842
1.02145
0.830608
0.58791
0.292308
-0.0270932
0
0
0
0
0
0
0
0
0
0
0
0
0
0
0
0
0
0
0
0
0
0
0
0
0
0
0
0
0
0
0
0
0
0
0
0
0
0
1.26769
1.25493
1.23016
1.1909
1.13431
1.05551
0.949125
0.80652
0.618546
0.37635
0.0759076
0
0
0
0
0
0
0
0
0
0
0
0
0
0
0
0
0
0
0
0
0
0
0
0
0
0
0
0
0
0
0
0
0
0
0
0
0
0
0
1.03449
1.02305
1.00135
0.966025
0.914642
0.843114
0.745614
0.613789
0.438294
0.212374
-0.0297894
0
0
0
0
0
0
0
0
0
0
0
0
0
0
0
0
0
0
0
0
0
0
0
0
0
0
0
0
0
0
0
0
0
0
0
0
0
0
0
0.806874
0.797574
0.779254
0.749008
0.705258
0.643886
0.559639
0.445139
0.290837
0.0838738
0
0
0
0
0
0
0
0
0
0
0
0
0
0
0
0
0
0
0
0
0
0
0
0
0
0
0
0
0
0
0
0
0
0
0
0
0
0
0
0
0.585831
0.578786
0.564299
0.540588
0.506296
0.457718
0.390726
0.300132
0.18225
0.0421014
0
0
0
0
0
0
0
0
0
0
0
0
0
0
0
0
0
0
0
0
0
0
0
0
0
0
0
0
0
0
0
0
0
0
0
0
0
0
0
0
0.371039
0.366306
0.356711
0.340128
0.317091
0.283285
0.235985
0.170671
0.0885874
0.0233118
0
0
0
0
0
0
0
0
0
0
0
0
0
0
0
0
0
0
0
0
0
0
0
0
0
0
0
0
0
0
0
0
0
0
0
0
0
0
0
0
0.161317
0.159138
0.156038
0.145412
0.136778
0.119121
0.0941836
0.0513582
-0.00179559
-0.0512999
0
0
0
0
0
0
0
0
0
0
0
0
0
0
0
0
0
0
0
0
0
0
0
0
0
0
0
0
0
0
0
0
0
0
0
0
0
0
0
0
-0.0269377
-0.0276018
-0.0177435
-0.0316741
-0.0139448
-0.0173588
-0.00915796
-0.0331999
0
0
0
0
0
0
0
0
0
0
0
0
0
0
0
0
0
0
0
0
0
0
0
0
0
0
0
0
0
0
0
0
0
0
0
0
0
0
0
0
0
0
0
0
0
0
0
0
0
0
0
0
0
0
0
0
0
0
0
0
0
0
0
0
0
0
0
0
0
0
0
0
0
0
0
0
0
0
0
0
0
0
0
0
0
0
0
0
0
0
0
0
0
0
0
0
0
0
0
0
0
0
0
0
0
0
0
0
0
0
0
0
0
0
0
0
0
0
0
0
0
0
0
0
0
0
0
0
0
0
0
0
0
0
0
0
0
0
0
0
0
0
0
0
0
0
0
0
0
0
0
0
0
0
0
0
0
0
0
0
0
0
0
0
0
0
0
0
0
0
0
0
0
0
0
0
0
0
0
0
0
0
0
0
0
0
0
0
0
0
0
0
0
0
0
0
0
0
0
0
0
0
0
0
0
0
0
0
0
0
0
0
0
0
0
0
0
0
0
0
0
0
0
0
0
0
0
0
0
0
0
0
0
0
0
0
0
0
0
0
0
0
0
0
0
0
0
0
0
0
0
0
0
0
0
0
0
0
0
0
0
0
0
0
0
0
0
0
0
0
0
0
0
0
0
0
0
0
0
0
0
0
0
0
0
0
0
0
0
0
0
0
0
0
0
0
0
0
0
0
0
0
0
0
0
0
0
0
0
0
0
0
0
0
0
0
0
0
0
0
0
0
0
0
0
0
0
0
0
0
0
0
0
0
0
0
0
0
0
0
0
0
SCALARS rhs double 1
LOOKUP_TABLE default
-5.70745
-5.76972
-5.81893
-5.89849
-6.002
-6.09304
-6.21617
-6.34804
-6.5228
-6.60702
-6.58311
-6.36319
-5.93384
-5.43378
-5.02459
-4.88031
-5.01328
3.75866
0
0
0
0
0
0
0
0
0
0
0
0
0
0
0
0
0
0
0
0
0
0
0
0
0
0
0
0
0
0
0
0
-0.56764
-0.607256
-0.634302
-0.684171
-0.740615
-0.813991
-0.927723
-1.07871
-1.19993
-1.29589
-1.23742
-0.988628
-0.534527
-0.00830331
0.469411
0.263256
3.75866
1.29221
0
0
0
0
0
0
0
0
0
0
0
0
0
0
0
0
0
0
0
0
0
0
0
0
0
0
0
0
0
0
0
0
-0.515416
-0.536284
-0.553515
-0.598872
-0.658217
-0.761356
-0.868308
-1.0622
-1.16393
-1.23965
-1.11853
-0.717584
-0.0974351
0.710142
1.39345
3.75866
0
0
0
0
0
0
0
0
0
0
0
0
0
0
0
0
0
0
0
0
0
0
0
0
0
0
0
0
0
0
0
0
0
0
-0.415474
-0.465785
-0.513407
-0.573327
-0.64003
-0.747945
-0.864403
-0.998617
-1.08309
-1.09633
-0.892528
-0.268615
0.777228
1.95893
1.29221
0
0
0
0
0
0
0
0
0
0
0
0
0
0
0
0
0
0
0
0
0
0
0
0
0
0
0
0
0
0
0
0
0
0
0
-0.365601
-0.454945
-0.485897
-0.496878
-0.563389
-0.626555
-0.753114
-0.876603
-0.987356
-0.940666
-0.629345
0.346012
1.70214
1.29221
0
0
0
0
0
0
0
0
0
0
0
0
0
0
0
0
0
0
0
0
0
0
0
0
0
0
0
0
0
0
0
0
0
0
0
0
-0.348438
-0.364376
-0.346838
-0.394219
-0.47744
-0.581395
-0.704775
-0.791287
-0.867958
-0.756783
-0.324986
2.2575
1.29221
0
0
0
0
0
0
0
0
0
0
0
0
0
0
0
0
0
0
0
0
0
0
0
0
0
0
0
0
0
0
0
0
0
0
0
0
0
-0.256352
-0.270614
-0.297278
-0.348445
-0.415514
-0.479825
-0.599189
-0.680088
-0.714486
-0.480333
0.669652
4.98778
0
0
0
0
0
0
0
0
0
0
0
0
0
0
0
0
0
0
0
0
0
0
0
0
0
0
0
0
0
0
0
0
0
0
0
0
0
0
-0.195113
-0.194618
-0.210583
-0.268423
-0.340376
-0.409186
-0.510681
-0.578911
-0.562098
-0.265622
13.9019
0
0
0
0
0
0
0
0
0
0
0
0
0
0
0
0
0
0
0
0
0
0
0
0
0
0
0
0
0
0
0
0
0
0
0
0
0
0
0
-0.121781
-0.123135
-0.161826
-0.209419
-0.24613
-0.321007
-0.420543
-0.488873
-0.441374
0.482205
8.65528
0
0
0
0
0
0
0
0
0
0
0
0
0
0
0
0
0
0
0
0
0
0
0
0
0
0
0
0
0
0
0
0
0
0
0
0
0
0
0
-0.0554826
-0.0737962
-0.11152
-0.126508
-0.182131
-0.243689
-0.330509
-0.403227
-0.343697
23.5746
0
0
0
0
0
0
0
0
0
0
0
0
0
0
0
0
0
0
0
0
0
0
0
0
0
0
0
0
0
0
0
0
0
0
0
0
0
0
0
0
-0.00919076
-0.0424617
-0.0431315
-0.0658577
-0.115714
-0.164918
-0.236324
-0.292826
-0.183031
23.7251
0
0
0
0
0
0
0
0
0
0
0
0
0
0
0
0
0
0
0
0
0
0
0
0
0
0
0
0
0
0
0
0
0
0
0
0
0
0
0
0
0.0133668
0.000788893
0.000379589
-0.014361
-0.0485062
-0.0810386
-0.12731
-0.165272
0.502066
23.4527
0
0
0
0
0
0
0
0
0
0
0
0
0
0
0
0
0
0
0
0
0
0
0
0
0
0
0
0
0
0
0
0
0
0
0
0
0
0
0
0
0.480098
0.483157
0.489425
0.492704
0.509883
0.510328
0.514995
0.610541
1.82181
22.1064
0
0
0
0
0
0
0
0
0
0
0
0
0
0
0
0
0
0
0
0
0
0
0
0
0
0
0
0
0
0
0
0
0
0
0
0
0
0
0
0
2.97676
2.93043
3.08664
4.2102
4.22047
4.32659
5.42452
5.43401
4.26976
17.1298
0
0
0
0
0
0
0
0
0
0
0
0
0
0
0
0
0
0
0
0
0
0
0
0
0
0
0
0
0
0
0
0
0
0
0
0
0
0
0
0
6.55202
6.55536
6.55982
5.31204
5.40986
6.30896
5.08555
5.09432
5.2091
10.3371
0
0
0
0
0
0
0
0
0
0
0
0
0
0
0
0
0
0
0
0
0
0
0
0
0
0
0
0
0
0
0
0
0
0
0
0
0
0
0
0
5.52783
5.53996
5.54196
5.54121
5.54439
4.52522
5.16545
5.22779
16.4546
0
0
0
0
0
0
0
0
0
0
0
0
0
0
0
0
0
0
0
0
0
0
0
0
0
0
0
0
0
0
0
0
0
0
0
0
0
0
0
0
0
3.60674
3.66202
3.98033
3.98143
3.98244
3.98396
3.23505
3.31189
11.5415
0
0
0
0
0
0
0
0
0
0
0
0
0
0
0
0
0
0
0
0
0
0
0
0
0
0
0
0
0
0
0
0
0
0
0
0
0
0
0
0
0
6.01719
6.36025
5.75447
5.75462
5.75506
5.75536
5.75588
5.76119
8.30564
0
0
0
0
0
0
0
0
0
0
0
0
0
0
0
0
0
0
0
0
0
0
0
0
0
0
0
0
0
0
0
0
0
0
0
0
0
0
0
0
0
3.29611
2.74112
2.74112
2.74112
2.74112
2.74112
2.74112
2.74112
2.74112
0
0
0
0
0
0
0
0
0
0
0
0
0
0
0
0
0
0
0
0
0
0
0
0
0
0
0
0
0
0
0
0
0
0
0
0
0
0
0
0
0
0
0
0
0
0
0
0
0
0
0
0
0
0
0
0
0
0
0
0
0
0
0
0
0
0
0
0
0
0
0
0
0
0
0
0
0
0
0
0
0
0
0
0
0
0
0
0
0
0
0
