# vtk DataFile Version 4.0
Nusif Fluid VTK output
ASCII
DATASET STRUCTURED_POINTS
DIMENSIONS 50 20 1
ORIGIN 0 0 0 
SPACING 0.2 0.2 1
POINT_DATA 1000 

VECTORS velocity double
0.0432786 -0.0455738  0
0.129527 -0.0459207  0
0.216055 -0.0465642  0
0.304047 -0.0474832  0
0.394091 -0.0487371  0
0.486963 -0.0504313  0
0.583626 -0.052626  0
0.68513 -0.0553734  0
0.792456 -0.0585351  0
0.90623 -0.0619017  0
1.0267 -0.0653011  0
1.15379 -0.0685784  0
1.28621 -0.0706853  0
1.42033 -0.0703107  0
1.55029 -0.0665505  0
1.67093 -0.0610155  0
1.77972 -0.0547245  0
1.87506 -0.0475692  0
1.95784 -0.0421822  0
2.03071 -0.0376606  0
2.09474 -0.0333463  0
2.15082 -0.0297106  0
2.2008 -0.0272521  0
2.24757 -0.0265033  0
2.29438 -0.0272906  0
2.34182 -0.027134  0
2.38259 -0.0206198  0
2.40858 -0.0123495  0
2.42392 -0.00997316  0
2.43946 -0.0125509  0
2.45836 -0.0133414  0
2.46534 -0.000616988  0
2.4474 0.0115698  0
2.44281 -0.0104713  0
1.22664 0.000285033  0
0 0  0
0 0  0
0 0  0
0 0  0
0 0  0
0 0  0
0 0  0
0 0  0
0 0  0
0 0  0
0 0  0
0 0  0
0 0  0
0 0  0
0 0  0
0.0430033 -0.137139  0
0.128808 -0.138103  0
0.21494 -0.139924  0
0.302339 -0.142529  0
0.391584 -0.146133  0
0.483367 -0.150963  0
0.578569 -0.157346  0
0.678301 -0.165382  0
0.783423 -0.174564  0
0.89412 -0.184018  0
1.01009 -0.193366  0
1.13164 -0.202954  0
1.25857 -0.209509  0
1.38799 -0.208903  0
1.51317 -0.197007  0
1.62869 -0.180647  0
1.73343 -0.162564  0
1.8236 -0.139194  0
1.90003 -0.123728  0
1.96884 -0.111758  0
2.03108 -0.0994821  0
2.08643 -0.0889697  0
2.13613 -0.0816366  0
2.18266 -0.079391  0
2.23006 -0.0825903  0
2.28123 -0.0844071  0
2.32725 -0.0641037  0
2.35512 -0.0366919  0
2.37095 -0.0307705  0
2.38758 -0.0378905  0
2.40995 -0.0432494  0
2.43137 -0.0130789  0
2.43575 0.0271195  0
2.43177 -0.0209426  0
1.21588 -0.0101863  0
0 0  0
0 0  0
0 0  0
0 0  0
0 0  0
0 0  0
0 0  0
0 0  0
0 0  0
0 0  0
0 0  0
0 0  0
0 0  0
0 0  0
0 0  0
0.0426659 -0.228892  0
0.127877 -0.230393  0
0.21333 -0.233133  0
0.29979 -0.237144  0
0.387667 -0.242618  0
0.477404 -0.249986  0
0.569832 -0.25996  0
0.666196 -0.272876  0
0.767364 -0.287386  0
0.872282 -0.30084  0
0.979104 -0.31337  0
1.08896 -0.328388  0
1.20355 -0.339611  0
1.3223 -0.340979  0
1.4374 -0.319233  0
1.54349 -0.294035  0
1.64346 -0.267871  0
1.72758 -0.222173  0
1.79564 -0.199227  0
1.86032 -0.183731  0
1.92265 -0.16605  0
1.98047 -0.149547  0
2.03303 -0.137285  0
2.08152 -0.132733  0
2.12885 -0.137963  0
2.17975 -0.145063  0
2.22906 -0.11275  0
2.26536 -0.0626902  0
2.29326 -0.0554913  0
2.31373 -0.0572592  0
2.3264 -0.0659009  0
2.33248 -0.0249238  0
2.40815 0.00308782  0
2.45779 -0.0104713  0
1.21588 -0.0104713  0
0 0  0
0 0  0
0 0  0
0 0  0
0 0  0
0 0  0
0 0  0
0 0  0
0 0  0
0 0  0
0 0  0
0 0  0
0 0  0
0 0  0
0 0  0
0.0424226 -0.320286  0
0.127178 -0.322271  0
0.211942 -0.32549  0
0.297291 -0.330638  0
0.383382 -0.337137  0
0.47014 -0.346005  0
0.558306 -0.358583  0
0.649821 -0.376186  0
0.746192 -0.39567  0
0.842974 -0.408304  0
0.936308 -0.420117  0
1.03062 -0.439861  0
1.12503 -0.45117  0
1.22339 -0.460553  0
1.32334 -0.428735  0
1.41649 -0.39777  0
1.50724 -0.368853  0
1.59713 -0.305696  0
1.67611 -0.269741  0
1.74864 -0.257408  0
1.81644 -0.229494  0
1.87949 -0.213961  0
1.94144 -0.19436  0
1.99386 -0.183561  0
2.03644 -0.184034  0
2.0707 -0.191129  0
2.08625 -0.138532  0
2.17915 -0.107614  0
2.28683 -0.0346939  0
2.31503 -0.0319196  0
2.30694 -0.0359929  0
2.30895 -0.0124619  0
1.16624 -0.0124619  0
0 0  0
0 0  0
0 0  0
0 0  0
0 0  0
0 0  0
0 0  0
0 0  0
0 0  0
0 0  0
0 0  0
0 0  0
0 0  0
0 0  0
0 0  0
0 0  0
0 0  0
0.042414 -0.411643  0
0.127292 -0.414123  0
0.211234 -0.416451  0
0.295083 -0.422979  0
0.378842 -0.428748  0
0.460797 -0.437196  0
0.542662 -0.4515  0
0.628247 -0.474446  0
0.720504 -0.500115  0
0.805843 -0.500053  0
0.883177 -0.513104  0
0.965616 -0.537682  0
1.04392 -0.536593  0
1.11492 -0.551509  0
1.19329 -0.523116  0
1.27077 -0.481006  0
1.30504 -0.417644  0
1.4503 -0.38397  0
1.64874 -0.15206  0
1.72615 -0.147775  0
1.79234 -0.129579  0
1.86137 -0.123674  0
1.92148 -0.111459  0
1.98378 -0.103716  0
2.03607 -0.101371  0
2.0386 -0.10334  0
2.05218 -0.0692658  0
1.04313 -0.0692658  0
0 0  0
0 0  0
0 0  0
0 0  0
0 0  0
0 0  0
0 0  0
0 0  0
0 0  0
0 0  0
0 0  0
0 0  0
0 0  0
0 0  0
0 0  0
0 0  0
0 0  0
0 0  0
0 0  0
0 0  0
0 0  0
0 0  0
0.0426497 -0.50343  0
0.129088 -0.507465  0
0.211241 -0.503393  0
0.291221 -0.514042  0
0.37035 -0.514712  0
0.445245 -0.522204  0
0.519922 -0.537139  0
0.597278 -0.565835  0
0.678856 -0.596646  0
0.760895 -0.581465  0
0.818884 -0.574053  0
0.836355 -0.583668  0
0.965182 -0.578044  0
1.11187 -0.293343  0
1.15759 -0.283157  0
1.19643 -0.25764  0
1.25622 -0.208822  0
0.65252 -0.208822  0
0 0  0
0 0  0
0 0  0
0 0  0
0 0  0
0 0  0
0 0  0
0 0  0
0 0  0
0 0  0
0 0  0
0 0  0
0 0  0
0 0  0
0 0  0
0 0  0
0 0  0
0 0  0
0 0  0
0 0  0
0 0  0
0 0  0
0 0  0
0 0  0
0 0  0
0 0  0
0 0  0
0 0  0
0 0  0
0 0  0
0 0  0
0 0  0
0.0415913 -0.594574  0
0.126874 -0.602046  0
0.208257 -0.583012  0
0.276658 -0.589913  0
0.354697 -0.603091  0
0.429631 -0.59072  0
0.494623 -0.61535  0
0.55688 -0.634281  0
0.581748 -0.641688  0
0.676351 -0.631836  0
0.799727 -0.295762  0
0.832427 -0.291834  0
0.418177 -0.291834  0
0 0  0
0 0  0
0 0  0
0 0  0
0 0  0
0 0  0
0 0  0
0 0  0
0 0  0
0 0  0
0 0  0
0 0  0
0 0  0
0 0  0
0 0  0
0 0  0
0 0  0
0 0  0
0 0  0
0 0  0
0 0  0
0 0  0
0 0  0
0 0  0
0 0  0
0 0  0
0 0  0
0 0  0
0 0  0
0 0  0
0 0  0
0 0  0
0 0  0
0 0  0
0 0  0
0 0  0
0 0  0
0.0197066 -0.659364  0
0.0394133 -0.64929  0
0.14264 -0.634997  0
0.291517 -0.310311  0
0.353548 -0.325211  0
0.43079 -0.309162  0
0.515036 -0.32637  0
0.551355 -0.329575  0
0.573017 -0.320844  0
0.290874 -0.320844  0
0 0  0
0 0  0
0 0  0
0 0  0
0 0  0
0 0  0
0 0  0
0 0  0
0 0  0
0 0  0
0 0  0
0 0  0
0 0  0
0 0  0
0 0  0
0 0  0
0 0  0
0 0  0
0 0  0
0 0  0
0 0  0
0 0  0
0 0  0
0 0  0
0 0  0
0 0  0
0 0  0
0 0  0
0 0  0
0 0  0
0 0  0
0 0  0
0 0  0
0 0  0
0 0  0
0 0  0
0 0  0
0 0  0
0 0  0
0 0  0
0.00481629 -0.339535  0
0.0245229 -0.324645  0
0.0197066 -0.324645  0
0 0  0
0 0  0
0 0  0
0 0  0
0 0  0
0 0  0
0 0  0
0 0  0
0 0  0
0 0  0
0 0  0
0 0  0
0 0  0
0 0  0
0 0  0
0 0  0
0 0  0
0 0  0
0 0  0
0 0  0
0 0  0
0 0  0
0 0  0
0 0  0
0 0  0
0 0  0
0 0  0
0 0  0
0 0  0
0 0  0
0 0  0
0 0  0
0 0  0
0 0  0
0 0  0
0 0  0
0 0  0
0 0  0
0 0  0
0 0  0
0 0  0
0 0  0
0 0  0
0 0  0
0 0  0
0 0  0
0 0  0
0 0  0
0 0  0
0 0  0
0 0  0
0 0  0
0 0  0
0 0  0
0 0  0
0 0  0
0 0  0
0 0  0
0 0  0
0 0  0
0 0  0
0 0  0
0 0  0
0 0  0
0 0  0
0 0  0
0 0  0
0 0  0
0 0  0
0 0  0
0 0  0
0 0  0
0 0  0
0 0  0
0 0  0
0 0  0
0 0  0
0 0  0
0 0  0
0 0  0
0 0  0
0 0  0
0 0  0
0 0  0
0 0  0
0 0  0
0 0  0
0 0  0
0 0  0
0 0  0
0 0  0
0 0  0
0 0  0
0 0  0
0 0  0
0 0  0
0 0  0
0 0  0
0 0  0
0 0  0
0 0  0
0 0  0
0 0  0
0 0  0
0 0  0
0 0  0
0 0  0
0 0  0
0 0  0
0 0  0
0 0  0
0 0  0
0 0  0
0 0  0
0 0  0
0 0  0
0 0  0
0 0  0
0 0  0
0 0  0
0 0  0
0 0  0
0 0  0
0 0  0
0 0  0
0 0  0
0 0  0
0 0  0
0 0  0
0 0  0
0 0  0
0 0  0
0 0  0
0 0  0
0 0  0
0 0  0
0 0  0
0 0  0
0 0  0
0 0  0
0 0  0
0 0  0
0 0  0
0 0  0
0 0  0
0 0  0
0 0  0
0 0  0
0 0  0
0 0  0
0 0  0
0 0  0
0 0  0
0 0  0
0 0  0
0 0  0
0 0  0
0 0  0
0 0  0
0 0  0
0 0  0
0 0  0
0 0  0
0 0  0
0 0  0
0 0  0
0 0  0
0 0  0
0 0  0
0 0  0
0 0  0
0 0  0
0 0  0
0 0  0
0 0  0
0 0  0
0 0  0
0 0  0
0 0  0
0 0  0
0 0  0
0 0  0
0 0  0
0 0  0
0 0  0
0 0  0
0 0  0
0 0  0
0 0  0
0 0  0
0 0  0
0 0  0
0 0  0
0 0  0
0 0  0
0 0  0
0 0  0
0 0  0
0 0  0
0 0  0
0 0  0
0 0  0
0 0  0
0 0  0
0 0  0
0 0  0
0 0  0
0 0  0
0 0  0
0 0  0
0 0  0
0 0  0
0 0  0
0 0  0
0 0  0
0 0  0
0 0  0
0 0  0
0 0  0
0 0  0
0 0  0
0 0  0
0 0  0
0 0  0
0 0  0
0 0  0
0 0  0
0 0  0
0 0  0
0 0  0
0 0  0
0 0  0
0 0  0
0 0  0
0 0  0
0 0  0
0 0  0
0 0  0
0 0  0
0 0  0
0 0  0
0 0  0
0 0  0
0 0  0
0 0  0
0 0  0
0 0  0
0 0  0
0 0  0
0 0  0
0 0  0
0 0  0
0 0  0
0 0  0
0 0  0
0 0  0
0 0  0
0 0  0
0 0  0
0 0  0
0 0  0
0 0  0
0 0  0
0 0  0
0 0  0
0 0  0
0 0  0
0 0  0
0 0  0
0 0  0
0 0  0
0 0  0
0 0  0
0 0  0
0 0  0
0 0  0
0 0  0
0 0  0
0 0  0
0 0  0
0 0  0
0 0  0
0 0  0
0 0  0
0 0  0
0 0  0
0 0  0
0 0  0
0 0  0
0 0  0
0 0  0
0 0  0
0 0  0
0 0  0
0 0  0
0 0  0
0 0  0
0 0  0
0 0  0
0 0  0
0 0  0
0 0  0
0 0  0
0 0  0
0 0  0
0 0  0
0 0  0
0 0  0
0 0  0
0 0  0
0 0  0
0 0  0
0 0  0
0 0  0
0 0  0
0 0  0
0 0  0
0 0  0
0 0  0
0 0  0
0 0  0
0 0  0
0 0  0
0 0  0
0 0  0
0 0  0
0 0  0
0 0  0
0 0  0
0 0  0
0 0  0
0 0  0
0 0  0
0 0  0
0 0  0
0 0  0
0 0  0
0 0  0
0 0  0
0 0  0
0 0  0
0 0  0
0 0  0
0 0  0
0 0  0
0 0  0
0 0  0
0 0  0
0 0  0
0 0  0
0 0  0
0 0  0
0 0  0
0 0  0
0 0  0
0 0  0
0 0  0
0 0  0
0 0  0
0 0  0
0 0  0
0 0  0
0 0  0
0 0  0
0 0  0
0 0  0
0 0  0
0 0  0
0 0  0
0 0  0
0 0  0
0 0  0
0 0  0
0 0  0
0 0  0
0 0  0
0 0  0
0 0  0
0 0  0
0 0  0
0 0  0
0 0  0
0 0  0
0 0  0
0 0  0
0 0  0
0 0  0
0 0  0
0 0  0
0 0  0
0 0  0
0 0  0
0 0  0
0 0  0
0 0  0
0 0  0
0 0  0
0 0  0
0 0  0
0 0  0
0 0  0
0 0  0
0 0  0
0 0  0
0 0  0
0 0  0
0 0  0
0 0  0
0 0  0
0 0  0
0 0  0
0 0  0
0 0  0
0 0  0
0 0  0
0 0  0
0 0  0
0 0  0
0 0  0
0 0  0
0 0  0
0 0  0
0 0  0
0 0  0
0 0  0
0 0  0
0 0  0
0 0  0
0 0  0
0 0  0
0 0  0
0 0  0
0 0  0
0 0  0
0 0  0
0 0  0
0 0  0
0 0  0
0 0  0
0 0  0
0 0  0
0 0  0
0 0  0
0 0  0
0 0  0
0 0  0
0 0  0
0 0  0
0 0  0
0 0  0
0 0  0
0 0  0
0 0  0
0 0  0
0 0  0
0 0  0
0 0  0
0 0  0
0 0  0
0 0  0
0 0  0
0 0  0
0 0  0
0 0  0
0 0  0
0 0  0
0 0  0
0 0  0
0 0  0
0 0  0
0 0  0
0 0  0
0 0  0
0 0  0
0 0  0
0 0  0
0 0  0
0 0  0
0 0  0
0 0  0
0 0  0
0 0  0
0 0  0
0 0  0
0 0  0
0 0  0
0 0  0
0 0  0
0 0  0
0 0  0
0 0  0
0 0  0
0 0  0
0 0  0
0 0  0
0 0  0
0 0  0
0 0  0
0 0  0
0 0  0
0 0  0
0 0  0
0 0  0
0 0  0
0 0  0
0 0  0
0 0  0
0 0  0
0 0  0
0 0  0
0 0  0
0 0  0
0 0  0
0 0  0
0 0  0
0 0  0
0 0  0
0 0  0
0 0  0
0 0  0
0 0  0
0 0  0
0 0  0
0 0  0
0 0  0
0 0  0
0 0  0
0 0  0
0 0  0
0 0  0
0 0  0
0 0  0
0 0  0
0 0  0
0 0  0
0 0  0
0 0  0
0 0  0
0 0  0
0 0  0
0 0  0
0 0  0
0 0  0
0 0  0
0 0  0
0 0  0
0 0  0
0 0  0
0 0  0
0 0  0
0 0  0
0 0  0
0 0  0
0 0  0
0 0  0
0 0  0
0 0  0
0 0  0
0 0  0
0 0  0
0 0  0
0 0  0
0 0  0
0 0  0
0 0  0
0 0  0
0 0  0
0 0  0
0 0  0
0 0  0
0 0  0
0 0  0
0 0  0
0 0  0
0 0  0
0 0  0
0 0  0
0 0  0
0 0  0
0 0  0
0 0  0
0 0  0
0 0  0
0 0  0
0 0  0
0 0  0
0 0  0
0 0  0
0 0  0
0 0  0
0 0  0
0 0  0
0 0  0
0 0  0
0 0  0
0 0  0
0 0  0

SCALARS pressure double 1
LOOKUP_TABLE default
1.40554
1.39223
1.37644
1.36135
1.34144
1.3196
1.29485
1.266
1.23234
1.19289
1.14752
1.09563
1.03673
0.971322
0.900261
0.82636
0.753001
0.685599
0.632483
0.593321
0.565026
0.544731
0.529095
0.513487
0.494568
0.467066
0.429706
0.39204
0.363908
0.33748
0.301638
0.241527
0.14691
0
0
0
0
0
0
0
0
0
0
0
0
0
0
0
0
0
1.18537
1.17361
1.1597
1.1421
1.12336
1.10161
1.07656
1.04704
1.01156
0.969357
0.920686
0.865821
0.804559
0.739893
0.671835
0.601644
0.529277
0.46001
0.4114
0.379008
0.356211
0.341368
0.330163
0.318889
0.304692
0.280191
0.236857
0.18887
0.169145
0.153543
0.133265
0.0850238
0
0.00993657
0
0
0
0
0
0
0
0
0
0
0
0
0
0
0
0
0.959967
0.949666
0.934146
0.915469
0.896616
0.875144
0.849846
0.818852
0.779598
0.731436
0.676888
0.615714
0.546684
0.484712
0.425229
0.364788
0.292938
0.21051
0.173152
0.155979
0.142425
0.137807
0.134056
0.130427
0.12808
0.115733
0.0614881
-0.0303291
-0.0204996
-0.0167131
0
-0.0172476
0
0
0
0
0
0
0
0
0
0
0
0
0
0
0
0
0
0
0.732915
0.720938
0.701318
0.681811
0.662934
0.64221
0.617761
0.585609
0.540892
0.482505
0.421645
0.352409
0.257919
0.206069
0.168864
0.132566
0.0646278
-0.0751799
-0.0787329
-0.0629254
-0.0723483
-0.0584863
-0.0542388
-0.0528986
-0.0331287
0
-0.0512201
0
0
0
0
0
0
0
0
0
0
0
0
0
0
0
0
0
0
0
0
0
0
0
0.507691
0.49041
0.461075
0.439198
0.423007
0.404431
0.384043
0.353672
0.302509
0.223719
0.163324
0.100267
-0.0843874
-0.0921361
-0.0811646
-0.0615091
-0.0791607
0
0
0
0
0
0
0
0
0
0
0
0
0
0
0
0
0
0
0
0
0
0
0
0
0
0
0
0
0
0
0
0
0
0.290759
0.264633
0.206351
0.183188
0.178859
0.161966
0.153156
0.133486
0.0807291
-0.0526666
-0.0927624
-0.0318181
0
0
0
0
0
0
0
0
0
0
0
0
0
0
0
0
0
0
0
0
0
0
0
0
0
0
0
0
0
0
0
0
0
0
0
0
0
0
0.0931532
0.0651045
-0.083566
-0.0927572
-0.0497367
-0.0868357
-0.0644475
-0.0529723
-0.0572216
0
0
0
0
0
0
0
0
0
0
0
0
0
0
0
0
0
0
0
0
0
0
0
0
0
0
0
0
0
0
0
0
0
0
0
0
0
0
0
0
0
-0.0734026
-0.00746596
0
0
0
0
0
0
0
0
0
0
0
0
0
0
0
0
0
0
0
0
0
0
0
0
0
0
0
0
0
0
0
0
0
0
0
0
0
0
0
0
0
0
0
0
0
0
0
0
0
0
0
0
0
0
0
0
0
0
0
0
0
0
0
0
0
0
0
0
0
0
0
0
0
0
0
0
0
0
0
0
0
0
0
0
0
0
0
0
0
0
0
0
0
0
0
0
0
0
0
0
0
0
0
0
0
0
0
0
0
0
0
0
0
0
0
0
0
0
0
0
0
0
0
0
0
0
0
0
0
0
0
0
0
0
0
0
0
0
0
0
0
0
0
0
0
0
0
0
0
0
0
0
0
0
0
0
0
0
0
0
0
0
0
0
0
0
0
0
0
0
0
0
0
0
0
0
0
0
0
0
0
0
0
0
0
0
0
0
0
0
0
0
0
0
0
0
0
0
0
0
0
0
0
0
0
0
0
0
0
0
0
0
0
0
0
0
0
0
0
0
0
0
0
0
0
0
0
0
0
0
0
0
0
0
0
0
0
0
0
0
0
0
0
0
0
0
0
0
0
0
0
0
0
0
0
0
0
0
0
0
0
0
0
0
0
0
0
0
0
0
0
0
0
0
0
0
0
0
0
0
0
0
0
0
0
0
0
0
0
0
0
0
0
0
0
0
0
0
0
0
0
0
0
0
0
0
0
0
0
0
0
0
0
0
0
0
0
0
0
0
0
0
0
0
0
0
0
0
0
0
0
0
0
0
0
0
0
0
0
0
0
0
0
0
0
0
0
0
0
0
0
0
0
0
0
0
0
0
0
0
0
0
0
0
0
0
0
0
0
0
0
0
0
0
0
0
0
0
0
0
0
0
0
0
0
0
0
0
0
0
0
0
0
0
0
0
0
0
0
0
0
0
0
0
0
0
0
0
0
0
0
0
0
0
0
0
0
0
0
0
0
0
0
0
0
0
0
0
0
0
0
0
0
0
0
0
0
0
0
0
0
0
0
0
0
0
0
0
0
0
0
0
0
0
0
0
0
0
0
0
0
0
0
0
0
0
0
0
0
0
0
0
0
0
0
0
0
0
0
0
0
0
0
0
0
0
0
0
0
0
0
0
0
0
0
0
0
0
0
0
0
0
0
0
0
0
0
0
0
0
0
0
0
0
0
0
0
0
0
0
0
0
0
0
0
0
0
0
0
0
0
0
0
0
0
0
0
0
0
0
0
0
0
0
0
0
0
0
0
0
0
0
0
0
0
0
0
0
0
0
0
0
0
0
0
0
0
0
0
0
0
0
0
0
0
0
0
0
0
0
0
0
0
0
0
0
0
0
0
0
0
0
0
0
0
0
0
0
0
0
0
0
0
0
0
0
0
0
0
0
0
0
0
0
0
0
0
0
0
0
0
0
0
0
0
0
0
0
0
0
0
0
0
0
0
0
0
0
0
0
0
0
0
0
0
0
0
0
SCALARS rhs double 1
LOOKUP_TABLE default
-5.53784
-5.39215
-5.27908
-5.49162
-5.40898
-5.44181
-5.49235
-5.53912
-5.61901
-5.70131
-5.80549
-5.89993
-5.95172
-5.91594
-5.77161
-5.60098
-5.43809
-5.28124
-5.17577
-5.08564
-5.01924
-4.96691
-4.97287
-4.94712
-4.96133
-4.91827
-4.82888
-4.84084
-4.82648
-4.83372
-4.81606
-4.77522
-4.98011
1.5584
0
0
0
0
0
0
0
0
0
0
0
0
0
0
0
0
-0.299119
-0.17833
-0.305757
-0.213081
-0.28911
-0.29497
-0.323737
-0.381467
-0.451353
-0.524128
-0.581471
-0.671757
-0.728963
-0.681835
-0.510513
-0.357672
-0.2411
-0.0815584
-0.0247422
0.0220434
0.0733726
0.0861803
0.0691266
0.0796985
0.0739466
0.0896845
0.320665
0.305751
0.231008
0.225056
0.17864
0.436233
2.27388
0.873087
0
0
0
0
0
0
0
0
0
0
0
0
0
0
0
0
-0.199551
-0.248071
-0.264065
-0.182344
-0.241296
-0.261369
-0.28059
-0.336994
-0.395695
-0.439111
-0.457679
-0.528523
-0.601237
-0.525276
-0.272201
-0.170209
-0.065463
0.220844
0.162442
0.193245
0.198623
0.202555
0.198444
0.160484
0.134987
0.170495
0.627238
2.55638
3.13187
3.31737
2.27388
0.873087
0
0
0
0
0
0
0
0
0
0
0
0
0
0
0
0
0
0
-0.182799
-0.241884
-0.187774
-0.215546
-0.209391
-0.219376
-0.23982
-0.288138
-0.339573
-0.313405
-0.292358
-0.356948
-0.277948
-0.125863
0.178782
0.1607
0.314875
3.17616
23.9838
17.6
13.3445
8.56258
5.50421
2.71631
3.13187
3.31737
0.873087
0
0
0
0
0
0
0
0
0
0
0
0
0
0
0
0
0
0
0
0
0
0
0
-0.179738
-0.194521
-0.187183
-0.202015
-0.174176
-0.171294
-0.185294
-0.233611
-0.282443
0.0118608
-0.0160246
-0.0436484
0.627499
0.918072
40.1297
31.4537
19.5017
9.00999
0
0
0
0
0
0
0
0
0
0
0
0
0
0
0
0
0
0
0
0
0
0
0
0
0
0
0
0
0
0
0
0
-0.149678
-0.161637
-0.0193467
-0.0410941
0.0640199
0.0338824
0.0521691
0.00918754
0.0723807
1.48351
2.98399
2.80166
12.4974
35.3186
0
0
0
0
0
0
0
0
0
0
0
0
0
0
0
0
0
0
0
0
0
0
0
0
0
0
0
0
0
0
0
0
0
0
0
0
0.0751596
0.143128
0.697001
0.771905
1.53423
2.34145
3.20431
3.08352
2.09579
1.47098
2.53607
14.3387
26.3021
0
0
0
0
0
0
0
0
0
0
0
0
0
0
0
0
0
0
0
0
0
0
0
0
0
0
0
0
0
0
0
0
0
0
0
0
0
2.59543
2.54951
1.62039
1.22694
0.49828
0.777197
0.916648
3.70181
7.89906
8.9678
11.6117
27.2717
0
0
0
0
0
0
0
0
0
0
0
0
0
0
0
0
0
0
0
0
0
0
0
0
0
0
0
0
0
0
0
0
0
0
0
0
0
0
2.45787
2.59584
4.01582
4.53242
6.43299
7.47839
9.23983
7.89527
5.98596
8.49533
41.2731
0
0
0
0
0
0
0
0
0
0
0
0
0
0
0
0
0
0
0
0
0
0
0
0
0
0
0
0
0
0
0
0
0
0
0
0
0
0
0
9.36633
9.33066
8.04142
9.25902
7.69325
7.78758
9.09454
10.208
11.1703
21.7759
3.2041
0
0
0
0
0
0
0
0
0
0
0
0
0
0
0
0
0
0
0
0
0
0
0
0
0
0
0
0
0
0
0
0
0
0
0
0
0
0
0
7.92952
10.0992
10.1145
8.86149
11.2589
12.4355
10.8064
8.57914
8.60392
43.2779
0
0
0
0
0
0
0
0
0
0
0
0
0
0
0
0
0
0
0
0
0
0
0
0
0
0
0
0
0
0
0
0
0
0
0
0
0
0
0
0
13.2058
10.8439
11.0393
13.0106
10.7272
10.2862
9.48307
9.57063
8.67562
33.2233
0
0
0
0
0
0
0
0
0
0
0
0
0
0
0
0
0
0
0
0
0
0
0
0
0
0
0
0
0
0
0
0
0
0
0
0
0
0
0
0
8.71388
9.82855
9.83715
7.65861
8.9401
7.02241
6.34758
6.44313
5.90605
26.1906
0
0
0
0
0
0
0
0
0
0
0
0
0
0
0
0
0
0
0
0
0
0
0
0
0
0
0
0
0
0
0
0
0
0
0
0
0
0
0
0
7.061
5.55892
5.71513
6.83869
5.56628
5.6724
5.42452
5.43401
4.26976
17.1298
0
0
0
0
0
0
0
0
0
0
0
0
0
0
0
0
0
0
0
0
0
0
0
0
0
0
0
0
0
0
0
0
0
0
0
0
0
0
0
0
6.55202
6.55536
6.55982
5.31204
5.40986
6.30896
5.08555
5.09432
5.2091
10.3371
0
0
0
0
0
0
0
0
0
0
0
0
0
0
0
0
0
0
0
0
0
0
0
0
0
0
0
0
0
0
0
0
0
0
0
0
0
0
0
0
5.52783
5.53996
5.54196
5.54121
5.54439
4.52522
5.16545
5.22779
16.4546
0
0
0
0
0
0
0
0
0
0
0
0
0
0
0
0
0
0
0
0
0
0
0
0
0
0
0
0
0
0
0
0
0
0
0
0
0
0
0
0
0
3.60674
3.66202
3.98033
3.98143
3.98244
3.98396
3.23505
3.31189
11.5415
0
0
0
0
0
0
0
0
0
0
0
0
0
0
0
0
0
0
0
0
0
0
0
0
0
0
0
0
0
0
0
0
0
0
0
0
0
0
0
0
0
6.01719
6.36025
5.75447
5.75462
5.75506
5.75536
5.75588
5.76119
8.30564
0
0
0
0
0
0
0
0
0
0
0
0
0
0
0
0
0
0
0
0
0
0
0
0
0
0
0
0
0
0
0
0
0
0
0
0
0
0
0
0
0
3.29611
2.74112
2.74112
2.74112
2.74112
2.74112
2.74112
2.74112
2.74112
0
0
0
0
0
0
0
0
0
0
0
0
0
0
0
0
0
0
0
0
0
0
0
0
0
0
0
0
0
0
0
0
0
0
0
0
0
0
0
0
0
0
0
0
0
0
0
0
0
0
0
0
0
0
0
0
0
0
0
0
0
0
0
0
0
0
0
0
0
0
0
0
0
0
0
0
0
0
0
0
0
0
0
0
0
0
0
0
0
0
0
