# vtk DataFile Version 4.0
Nusif Fluid VTK output
ASCII
DATASET STRUCTURED_POINTS
DIMENSIONS 50 20 1
ORIGIN 0 0 0 
SPACING 0.2 0.2 1
POINT_DATA 1000 

VECTORS velocity double
0.0390496 -0.0458936  0
0.117863 -0.0460035  0
0.197703 -0.0462479  0
0.278207 -0.0465511  0
0.35947 -0.0469122  0
0.441604 -0.0473211  0
0.524734 -0.0478145  0
0.609051 -0.048429  0
0.69473 -0.0490961  0
0.781623 -0.0495731  0
0.869382 -0.0499119  0
0.957625 -0.0499861  0
1.04617 -0.0501568  0
1.13554 -0.0507914  0
1.22609 -0.0513002  0
1.31762 -0.0517504  0
1.40896 -0.05111  0
1.497 -0.0484372  0
1.57848 -0.0445507  0
1.65255 -0.0410177  0
1.72061 -0.0385419  0
1.78479 -0.0371286  0
1.84673 -0.0363056  0
1.90742 -0.0358787  0
1.9669 -0.035095  0
2.02354 -0.033029  0
2.07908 -0.0340051  0
2.13701 -0.0354144  0
2.1945 -0.0335698  0
2.24682 -0.0302481  0
2.29234 -0.0267571  0
2.33048 -0.0228741  0
2.36135 -0.0194883  0
2.38722 -0.0178744  0
2.41295 -0.0193408  0
2.44454 -0.0237385  0
2.48407 -0.0272868  0
2.51975 -0.0198827  0
2.52511 0.00303454  0
2.5007 0.00988469  0
2.49675 -0.0116879  0
1.25422 -0.00168124  0
0 0  0
0 0  0
0 0  0
0 0  0
0 0  0
0 0  0
0 0  0
0 0  0
0.039098 -0.137064  0
0.117952 -0.137481  0
0.197766 -0.138296  0
0.27816 -0.139181  0
0.35914 -0.140189  0
0.440789 -0.141381  0
0.523223 -0.142786  0
0.606749 -0.144677  0
0.691613 -0.146693  0
0.776906 -0.147389  0
0.862 -0.148124  0
0.947065 -0.148181  0
1.03228 -0.148783  0
1.11853 -0.150818  0
1.20424 -0.150548  0
1.28907 -0.151866  0
1.37421 -0.150464  0
1.45744 -0.14335  0
1.5357 -0.132373  0
1.60784 -0.122392  0
1.67478 -0.115161  0
1.73878 -0.111658  0
1.80112 -0.10904  0
1.86311 -0.108812  0
1.92558 -0.107096  0
1.98204 -0.0971027  0
2.03582 -0.102239  0
2.09525 -0.107521  0
2.15488 -0.101564  0
2.20754 -0.0902214  0
2.25285 -0.0805958  0
2.29267 -0.0699742  0
2.3266 -0.060172  0
2.35536 -0.0548077  0
2.38196 -0.0577071  0
2.41046 -0.0684456  0
2.44399 -0.0786284  0
2.48025 -0.0634616  0
2.49625 0.00802649  0
2.49136 0.0227001  0
2.48843 -0.0233758  0
1.24421 -0.0133691  0
0 0  0
0 0  0
0 0  0
0 0  0
0 0  0
0 0  0
0 0  0
0 0  0
0.0390651 -0.227434  0
0.117786 -0.228322  0
0.197406 -0.229776  0
0.27739 -0.230991  0
0.357452 -0.232307  0
0.437684 -0.234034  0
0.518435 -0.236221  0
0.600582 -0.239801  0
0.684622 -0.243367  0
0.766321 -0.240599  0
0.845079 -0.241653  0
0.9242 -0.241727  0
1.0048 -0.243973  0
1.08896 -0.248956  0
1.16698 -0.239082  0
1.23942 -0.243555  0
1.3153 -0.242751  0
1.39164 -0.233594  0
1.46642 -0.218146  0
1.538 -0.203314  0
1.60611 -0.192275  0
1.67153 -0.186935  0
1.73541 -0.182959  0
1.79911 -0.183564  0
1.86452 -0.183202  0
1.92152 -0.151697  0
1.97536 -0.166756  0
2.03243 -0.171003  0
2.09022 -0.166988  0
2.14528 -0.144008  0
2.19155 -0.129881  0
2.23381 -0.114261  0
2.27371 -0.101203  0
2.30952 -0.0898411  0
2.3397 -0.0909442  0
2.36362 -0.0991146  0
2.38037 -0.10974  0
2.38743 -0.0871576  0
2.43304 -0.0385869  0
2.50804 0.0128154  0
2.51293 -0.0116879  0
1.24421 -0.0116879  0
0 0  0
0 0  0
0 0  0
0 0  0
0 0  0
0 0  0
0 0  0
0 0  0
0.0388166 -0.317232  0
0.11697 -0.318725  0
0.195657 -0.320498  0
0.274287 -0.3217  0
0.352116 -0.322329  0
0.42945 -0.324431  0
0.507195 -0.327176  0
0.587449 -0.334117  0
0.671781 -0.340287  0
0.747573 -0.324043  0
0.815256 -0.327518  0
0.886906 -0.329532  0
0.962292 -0.335078  0
1.04278 -0.345424  0
1.11807 -0.313133  0
1.18269 -0.318034  0
1.25261 -0.325561  0
1.32721 -0.313192  0
1.39739 -0.295001  0
1.47378 -0.285916  0
1.5424 -0.25789  0
1.61502 -0.27086  0
1.67805 -0.237429  0
1.73124 -0.257476  0
1.76746 -0.222402  0
1.86716 -0.198824  0
1.98663 -0.0985212  0
2.03291 -0.0988958  0
2.07536 -0.0989936  0
2.12233 -0.0840347  0
2.17467 -0.0760425  0
2.21829 -0.0671605  0
2.25946 -0.0605191  0
2.30158 -0.0529078  0
2.3412 -0.052578  0
2.36944 -0.0544075  0
2.36954 -0.0583981  0
2.37261 -0.0435788  0
1.19371 -0.0435788  0
0 0  0
0 0  0
0 0  0
0 0  0
0 0  0
0 0  0
0 0  0
0 0  0
0 0  0
0 0  0
0 0  0
0.0384467 -0.406149  0
0.115177 -0.407722  0
0.191731 -0.409502  0
0.267296 -0.409658  0
0.341696 -0.409406  0
0.41482 -0.410642  0
0.487283 -0.414006  0
0.561799 -0.424918  0
0.640939 -0.435819  0
0.711542 -0.392053  0
0.777713 -0.404792  0
0.842149 -0.399797  0
0.900182 -0.409698  0
0.930417 -0.392988  0
1.04227 -0.369793  0
1.19156 -0.174595  0
1.25253 -0.182164  0
1.30972 -0.174511  0
1.38686 -0.164677  0
1.45134 -0.163976  0
1.53687 -0.142234  0
1.59999 -0.158455  0
1.66644 -0.127204  0
1.71524 -0.146844  0
1.73181 -0.111201  0
0.883729 -0.111201  0
0 0  0
0 0  0
0 0  0
0 0  0
0 0  0
0 0  0
0 0  0
0 0  0
0 0  0
0 0  0
0 0  0
0 0  0
0 0  0
0 0  0
0 0  0
0 0  0
0 0  0
0 0  0
0 0  0
0 0  0
0 0  0
0 0  0
0 0  0
0 0  0
0.0368648 -0.487226  0
0.11408 -0.492035  0
0.18547 -0.484504  0
0.259485 -0.495615  0
0.329263 -0.479017  0
0.397731 -0.494036  0
0.462913 -0.479674  0
0.513357 -0.495636  0
0.540285 -0.482603  0
0.650603 -0.452094  0
0.780718 -0.220715  0
0.8414 -0.213797  0
0.882878 -0.219966  0
0.906944 -0.196494  0
0.465208 -0.196494  0
0 0  0
0 0  0
0 0  0
0 0  0
0 0  0
0 0  0
0 0  0
0 0  0
0 0  0
0 0  0
0 0  0
0 0  0
0 0  0
0 0  0
0 0  0
0 0  0
0 0  0
0 0  0
0 0  0
0 0  0
0 0  0
0 0  0
0 0  0
0 0  0
0 0  0
0 0  0
0 0  0
0 0  0
0 0  0
0 0  0
0 0  0
0 0  0
0 0  0
0 0  0
0 0  0
0.0410122 -0.262045  0
0.109807 -0.266193  0
0.188573 -0.257772  0
0.254623 -0.269296  0
0.327819 -0.25291  0
0.396417 -0.267851  0
0.456344 -0.251595  0
0.503063 -0.261282  0
0.520305 -0.241301  0
0.270143 -0.241301  0
0 0  0
0 0  0
0 0  0
0 0  0
0 0  0
0 0  0
0 0  0
0 0  0
0 0  0
0 0  0
0 0  0
0 0  0
0 0  0
0 0  0
0 0  0
0 0  0
0 0  0
0 0  0
0 0  0
0 0  0
0 0  0
0 0  0
0 0  0
0 0  0
0 0  0
0 0  0
0 0  0
0 0  0
0 0  0
0 0  0
0 0  0
0 0  0
0 0  0
0 0  0
0 0  0
0 0  0
0 0  0
0 0  0
0 0  0
0 0  0
0 0  0
0 0  0
0 0  0
0 0  0
0 0  0
0 0  0
0 0  0
0 0  0
0 0  0
0 0  0
0 0  0
0 0  0
0 0  0
0 0  0
0 0  0
0 0  0
0 0  0
0 0  0
0 0  0
0 0  0
0 0  0
0 0  0
0 0  0
0 0  0
0 0  0
0 0  0
0 0  0
0 0  0
0 0  0
0 0  0
0 0  0
0 0  0
0 0  0
0 0  0
0 0  0
0 0  0
0 0  0
0 0  0
0 0  0
0 0  0
0 0  0
0 0  0
0 0  0
0 0  0
0 0  0
0 0  0
0 0  0
0 0  0
0 0  0
0 0  0
0 0  0
0 0  0
0 0  0
0 0  0
0 0  0
0 0  0
0 0  0
0 0  0
0 0  0
0 0  0
0 0  0
0 0  0
0 0  0
0 0  0
0 0  0
0 0  0
0 0  0
0 0  0
0 0  0
0 0  0
0 0  0
0 0  0
0 0  0
0 0  0
0 0  0
0 0  0
0 0  0
0 0  0
0 0  0
0 0  0
0 0  0
0 0  0
0 0  0
0 0  0
0 0  0
0 0  0
0 0  0
0 0  0
0 0  0
0 0  0
0 0  0
0 0  0
0 0  0
0 0  0
0 0  0
0 0  0
0 0  0
0 0  0
0 0  0
0 0  0
0 0  0
0 0  0
0 0  0
0 0  0
0 0  0
0 0  0
0 0  0
0 0  0
0 0  0
0 0  0
0 0  0
0 0  0
0 0  0
0 0  0
0 0  0
0 0  0
0 0  0
0 0  0
0 0  0
0 0  0
0 0  0
0 0  0
0 0  0
0 0  0
0 0  0
0 0  0
0 0  0
0 0  0
0 0  0
0 0  0
0 0  0
0 0  0
0 0  0
0 0  0
0 0  0
0 0  0
0 0  0
0 0  0
0 0  0
0 0  0
0 0  0
0 0  0
0 0  0
0 0  0
0 0  0
0 0  0
0 0  0
0 0  0
0 0  0
0 0  0
0 0  0
0 0  0
0 0  0
0 0  0
0 0  0
0 0  0
0 0  0
0 0  0
0 0  0
0 0  0
0 0  0
0 0  0
0 0  0
0 0  0
0 0  0
0 0  0
0 0  0
0 0  0
0 0  0
0 0  0
0 0  0
0 0  0
0 0  0
0 0  0
0 0  0
0 0  0
0 0  0
0 0  0
0 0  0
0 0  0
0 0  0
0 0  0
0 0  0
0 0  0
0 0  0
0 0  0
0 0  0
0 0  0
0 0  0
0 0  0
0 0  0
0 0  0
0 0  0
0 0  0
0 0  0
0 0  0
0 0  0
0 0  0
0 0  0
0 0  0
0 0  0
0 0  0
0 0  0
0 0  0
0 0  0
0 0  0
0 0  0
0 0  0
0 0  0
0 0  0
0 0  0
0 0  0
0 0  0
0 0  0
0 0  0
0 0  0
0 0  0
0 0  0
0 0  0
0 0  0
0 0  0
0 0  0
0 0  0
0 0  0
0 0  0
0 0  0
0 0  0
0 0  0
0 0  0
0 0  0
0 0  0
0 0  0
0 0  0
0 0  0
0 0  0
0 0  0
0 0  0
0 0  0
0 0  0
0 0  0
0 0  0
0 0  0
0 0  0
0 0  0
0 0  0
0 0  0
0 0  0
0 0  0
0 0  0
0 0  0
0 0  0
0 0  0
0 0  0
0 0  0
0 0  0
0 0  0
0 0  0
0 0  0
0 0  0
0 0  0
0 0  0
0 0  0
0 0  0
0 0  0
0 0  0
0 0  0
0 0  0
0 0  0
0 0  0
0 0  0
0 0  0
0 0  0
0 0  0
0 0  0
0 0  0
0 0  0
0 0  0
0 0  0
0 0  0
0 0  0
0 0  0
0 0  0
0 0  0
0 0  0
0 0  0
0 0  0
0 0  0
0 0  0
0 0  0
0 0  0
0 0  0
0 0  0
0 0  0
0 0  0
0 0  0
0 0  0
0 0  0
0 0  0
0 0  0
0 0  0
0 0  0
0 0  0
0 0  0
0 0  0
0 0  0
0 0  0
0 0  0
0 0  0
0 0  0
0 0  0
0 0  0
0 0  0
0 0  0
0 0  0
0 0  0
0 0  0
0 0  0
0 0  0
0 0  0
0 0  0
0 0  0
0 0  0
0 0  0
0 0  0
0 0  0
0 0  0
0 0  0
0 0  0
0 0  0
0 0  0
0 0  0
0 0  0
0 0  0
0 0  0
0 0  0
0 0  0
0 0  0
0 0  0
0 0  0
0 0  0
0 0  0
0 0  0
0 0  0
0 0  0
0 0  0
0 0  0
0 0  0
0 0  0
0 0  0
0 0  0
0 0  0
0 0  0
0 0  0
0 0  0
0 0  0
0 0  0
0 0  0
0 0  0
0 0  0
0 0  0
0 0  0
0 0  0
0 0  0
0 0  0
0 0  0
0 0  0
0 0  0
0 0  0
0 0  0
0 0  0
0 0  0
0 0  0
0 0  0
0 0  0
0 0  0
0 0  0
0 0  0
0 0  0
0 0  0
0 0  0
0 0  0
0 0  0
0 0  0
0 0  0
0 0  0
0 0  0
0 0  0
0 0  0
0 0  0
0 0  0
0 0  0
0 0  0
0 0  0
0 0  0
0 0  0
0 0  0
0 0  0
0 0  0
0 0  0
0 0  0
0 0  0
0 0  0
0 0  0
0 0  0
0 0  0
0 0  0
0 0  0
0 0  0
0 0  0
0 0  0
0 0  0
0 0  0
0 0  0
0 0  0
0 0  0
0 0  0
0 0  0
0 0  0
0 0  0
0 0  0
0 0  0
0 0  0
0 0  0
0 0  0
0 0  0
0 0  0
0 0  0
0 0  0
0 0  0
0 0  0
0 0  0
0 0  0
0 0  0
0 0  0
0 0  0
0 0  0
0 0  0
0 0  0
0 0  0
0 0  0
0 0  0
0 0  0
0 0  0
0 0  0
0 0  0
0 0  0
0 0  0
0 0  0
0 0  0
0 0  0
0 0  0
0 0  0
0 0  0
0 0  0
0 0  0
0 0  0
0 0  0
0 0  0
0 0  0
0 0  0
0 0  0
0 0  0
0 0  0
0 0  0
0 0  0
0 0  0
0 0  0
0 0  0
0 0  0
0 0  0
0 0  0
0 0  0
0 0  0
0 0  0
0 0  0
0 0  0
0 0  0
0 0  0
0 0  0
0 0  0
0 0  0
0 0  0
0 0  0
0 0  0
0 0  0
0 0  0
0 0  0
0 0  0
0 0  0
0 0  0
0 0  0
0 0  0
0 0  0
0 0  0
0 0  0
0 0  0
0 0  0
0 0  0
0 0  0
0 0  0
0 0  0
0 0  0
0 0  0
0 0  0
0 0  0
0 0  0
0 0  0
0 0  0
0 0  0
0 0  0
0 0  0
0 0  0
0 0  0
0 0  0
0 0  0
0 0  0
0 0  0
0 0  0
0 0  0
0 0  0
0 0  0
0 0  0
0 0  0
0 0  0
0 0  0
0 0  0
0 0  0
0 0  0
0 0  0
0 0  0
0 0  0
0 0  0
0 0  0
0 0  0
0 0  0
0 0  0
0 0  0
0 0  0
0 0  0
0 0  0
0 0  0
0 0  0
0 0  0
0 0  0
0 0  0
0 0  0
0 0  0
0 0  0
0 0  0
0 0  0
0 0  0
0 0  0
0 0  0
0 0  0
0 0  0
0 0  0
0 0  0
0 0  0
0 0  0
0 0  0
0 0  0
0 0  0
0 0  0
0 0  0
0 0  0
0 0  0
0 0  0
0 0  0
0 0  0
0 0  0
0 0  0
0 0  0
0 0  0
0 0  0
0 0  0
0 0  0
0 0  0
0 0  0
0 0  0
0 0  0
0 0  0
0 0  0
0 0  0
0 0  0
0 0  0
0 0  0
0 0  0
0 0  0
0 0  0
0 0  0
0 0  0
0 0  0
0 0  0
0 0  0
0 0  0
0 0  0
0 0  0
0 0  0
0 0  0
0 0  0
0 0  0
0 0  0
0 0  0
0 0  0
0 0  0
0 0  0
0 0  0
0 0  0
0 0  0
0 0  0
0 0  0
0 0  0
0 0  0
0 0  0
0 0  0
0 0  0
0 0  0
0 0  0
0 0  0
0 0  0
0 0  0
0 0  0
0 0  0
0 0  0
0 0  0
0 0  0
0 0  0
0 0  0
0 0  0
0 0  0
0 0  0
0 0  0
0 0  0
0 0  0
0 0  0
0 0  0
0 0  0
0 0  0
0 0  0
0 0  0
0 0  0
0 0  0
0 0  0
0 0  0
0 0  0
0 0  0
0 0  0
0 0  0
0 0  0
0 0  0

SCALARS pressure double 1
LOOKUP_TABLE default
1.10793
1.10985
1.1079
1.10205
1.09165
1.07619
1.05566
1.02877
0.995702
0.9583
0.91906
0.878168
0.834669
0.788731
0.7428
0.703721
0.671934
0.64549
0.623136
0.604217
0.586676
0.568664
0.546134
0.516941
0.47775
0.433286
0.403878
0.386945
0.377922
0.373025
0.369611
0.368215
0.367786
0.366757
0.363709
0.352539
0.326797
0.278642
0.20636
0.140147
0
0
0
0
0
0
0
0
0
0
0.896544
0.897933
0.895913
0.890281
0.8802
0.865308
0.844793
0.816437
0.78099
0.740309
0.699828
0.659174
0.615463
0.565767
0.511773
0.47174
0.443344
0.420951
0.402741
0.388182
0.37418
0.361021
0.341192
0.315731
0.271773
0.20687
0.179542
0.166579
0.163912
0.162685
0.161897
0.162058
0.164421
0.165563
0.165931
0.16129
0.144086
0.100759
0.0027243
0
0.0164979
0
0
0
0
0
0
0
0
0
0.671497
0.672668
0.670902
0.665971
0.656928
0.643578
0.623288
0.593856
0.552779
0.5027
0.461881
0.424356
0.383983
0.32699
0.247484
0.208388
0.190648
0.176368
0.165185
0.160015
0.149569
0.149566
0.131349
0.122861
0.0764946
-0.0589591
-0.0621085
-0.0666793
-0.0505409
-0.0462643
-0.0435338
-0.042323
-0.0347697
-0.0318579
-0.0232122
-0.0152552
-0.00767006
-0.0265327
0
0
0
0
0
0
0
0
0
0
0
0
0.432352
0.433688
0.432193
0.429195
0.421582
0.412054
0.393791
0.365596
0.314829
0.238315
0.203962
0.176105
0.151954
0.0924856
-0.0624617
-0.081781
-0.0693218
-0.0739694
-0.0802848
-0.0638193
-0.0877017
-0.0439868
-0.0907045
-0.0319162
-0.0393016
0
0
0
0
0
0
0
0
0
0
0
0
0
0
0
0
0
0
0
0
0
0
0
0
0
0.17836
0.180922
0.178222
0.180871
0.17239
0.172997
0.158765
0.142694
0.0850333
-0.0707178
-0.0628728
-0.0786544
-0.0474562
-0.0505861
0
0
0
0
0
0
0
0
0
0
0
0
0
0
0
0
0
0
0
0
0
0
0
0
0
0
0
0
0
0
0
0
0
0
0
0
-0.0791321
-0.0691864
-0.0841957
-0.0577621
-0.0886302
-0.051875
-0.0757258
-0.0398207
-0.0452964
0
0
0
0
0
0
0
0
0
0
0
0
0
0
0
0
0
0
0
0
0
0
0
0
0
0
0
0
0
0
0
0
0
0
0
0
0
0
0
0
0
0
0
0
0
0
0
0
0
0
0
0
0
0
0
0
0
0
0
0
0
0
0
0
0
0
0
0
0
0
0
0
0
0
0
0
0
0
0
0
0
0
0
0
0
0
0
0
0
0
0
0
0
0
0
0
0
0
0
0
0
0
0
0
0
0
0
0
0
0
0
0
0
0
0
0
0
0
0
0
0
0
0
0
0
0
0
0
0
0
0
0
0
0
0
0
0
0
0
0
0
0
0
0
0
0
0
0
0
0
0
0
0
0
0
0
0
0
0
0
0
0
0
0
0
0
0
0
0
0
0
0
0
0
0
0
0
0
0
0
0
0
0
0
0
0
0
0
0
0
0
0
0
0
0
0
0
0
0
0
0
0
0
0
0
0
0
0
0
0
0
0
0
0
0
0
0
0
0
0
0
0
0
0
0
0
0
0
0
0
0
0
0
0
0
0
0
0
0
0
0
0
0
0
0
0
0
0
0
0
0
0
0
0
0
0
0
0
0
0
0
0
0
0
0
0
0
0
0
0
0
0
0
0
0
0
0
0
0
0
0
0
0
0
0
0
0
0
0
0
0
0
0
0
0
0
0
0
0
0
0
0
0
0
0
0
0
0
0
0
0
0
0
0
0
0
0
0
0
0
0
0
0
0
0
0
0
0
0
0
0
0
0
0
0
0
0
0
0
0
0
0
0
0
0
0
0
0
0
0
0
0
0
0
0
0
0
0
0
0
0
0
0
0
0
0
0
0
0
0
0
0
0
0
0
0
0
0
0
0
0
0
0
0
0
0
0
0
0
0
0
0
0
0
0
0
0
0
0
0
0
0
0
0
0
0
0
0
0
0
0
0
0
0
0
0
0
0
0
0
0
0
0
0
0
0
0
0
0
0
0
0
0
0
0
0
0
0
0
0
0
0
0
0
0
0
0
0
0
0
0
0
0
0
0
0
0
0
0
0
0
0
0
0
0
0
0
0
0
0
0
0
0
0
0
0
0
0
0
0
0
0
0
0
0
0
0
0
0
0
0
0
0
0
0
0
0
0
0
0
0
0
0
0
0
0
0
0
0
0
0
0
0
0
0
0
0
0
0
0
0
0
0
0
0
0
0
0
0
0
0
0
0
0
0
0
0
0
0
0
0
0
0
0
0
0
0
0
0
0
0
0
0
0
0
0
0
0
0
0
0
0
0
0
0
0
0
0
0
0
0
0
0
0
0
0
0
0
0
0
0
0
0
0
0
0
0
0
0
0
0
0
0
0
0
0
0
0
0
0
0
0
0
0
0
0
0
0
0
0
0
0
0
0
0
0
0
0
0
0
0
0
0
0
0
0
0
0
0
0
0
0
0
0
0
0
0
0
0
0
0
0
0
0
0
0
0
0
0
0
0
0
0
0
0
0
0
0
0
0
0
0
0
0
0
0
0
0
0
0
0
0
0
0
0
0
0
0
0
0
0
0
0
0
0
0
0
0
0
0
0
0
0
0
0
0
0
0
0
0
0
0
0
0
0
0
0
0
0
0
0
0
0
0
0
0
0
0
0
0
0
0
0
0
0
0
0
0
0
0
0
0
0
0
0
0
0
0
0
0
0
SCALARS rhs double 1
LOOKUP_TABLE default
-5.51109
-5.51847
-5.50356
-5.5023
-5.49562
-5.46774
-5.49022
-5.51219
-5.51534
-5.52788
-5.54868
-5.55454
-5.55425
-5.58118
-5.60972
-5.62065
-5.58403
-5.51289
-5.42582
-5.36686
-5.32516
-5.30431
-5.2907
-5.28044
-5.28033
-5.28408
-5.29803
-5.30957
-5.24823
-5.22147
-5.14153
-5.13049
-5.09909
-5.08011
-5.1475
-5.14563
-5.12805
-5.05027
-4.93913
-5.35202
2.91371
0
0
0
0
0
0
0
0
0
-0.41523
-0.411958
-0.41511
-0.424273
-0.40936
-0.409077
-0.457677
-0.427739
-0.465463
-0.478331
-0.468515
-0.464117
-0.456511
-0.494514
-0.48524
-0.489223
-0.452343
-0.396486
-0.335822
-0.289788
-0.281509
-0.261837
-0.262937
-0.253647
-0.255815
-0.0474881
-0.0713415
-0.0674261
0.0269583
0.0449788
0.0802763
0.100262
0.0736641
0.0747873
0.0906818
0.0536272
0.120764
-0.102959
5.21371
4.05566
1.43637
0
0
0
0
0
0
0
0
0
-0.393708
-0.408046
-0.413888
-0.406369
-0.401119
-0.41301
-0.421153
-0.426298
-0.461501
-0.432424
-0.409441
-0.403057
-0.424353
-0.455697
-0.125778
-0.137099
-0.0923547
-0.0660439
-0.04774
-0.0227487
-0.0549398
-0.00781433
-0.0619175
0.00548683
-0.24012
1.71791
1.73953
1.58225
9.74657
9.93207
8.88858
7.48779
5.55941
3.48045
3.83012
4.91225
4.89784
2.91371
0
0
0
0
0
0
0
0
0
0
0
0
-0.373646
-0.403869
-0.405379
-0.39217
-0.387172
-0.39502
-0.379184
-0.423809
-0.43077
-0.0563845
-0.0508813
-0.0702992
-0.0611309
-0.0996823
3.03634
5.21741
6.92957
9.79086
30.5985
24.2147
19.9592
15.1773
12.1189
9.33101
9.74657
8.4957
6.05141
2.40646
0
0
0
0
0
0
0
0
0
0
0
0
0
0
0
0
0
0
0
0
0
0
-0.0282781
-0.0482303
-0.0641097
-0.0212712
-0.0577883
-0.00754403
-0.0229067
-0.0235692
0.0423246
4.36624
4.62269
4.39671
7.2422
7.53277
43.8307
32.8547
19.5017
9.00999
0
0
0
0
0
0
0
0
0
0
0
0
0
0
0
0
0
0
0
0
0
0
0
0
0
0
0
0
0
0
0
0
5.08541
5.03464
4.98578
4.4264
3.74639
3.21099
3.0317
4.45729
6.68708
4.04255
4.68643
4.81997
12.4974
35.3186
0
0
0
0
0
0
0
0
0
0
0
0
0
0
0
0
0
0
0
0
0
0
0
0
0
0
0
0
0
0
0
0
0
0
0
0
1.47614
1.54411
2.09799
2.47435
3.77929
5.12603
6.33856
5.10183
2.09579
1.47098
2.53607
14.3387
26.3021
0
0
0
0
0
0
0
0
0
0
0
0
0
0
0
0
0
0
0
0
0
0
0
0
0
0
0
0
0
0
0
0
0
0
0
0
0
2.59543
2.54951
1.62039
1.22694
0.49828
0.777197
0.916648
3.70181
7.89906
8.9678
11.6117
27.2717
0
0
0
0
0
0
0
0
0
0
0
0
0
0
0
0
0
0
0
0
0
0
0
0
0
0
0
0
0
0
0
0
0
0
0
0
0
0
2.45787
2.59584
4.01582
4.53242
6.43299
7.47839
9.23983
7.89527
5.98596
8.49533
41.2731
0
0
0
0
0
0
0
0
0
0
0
0
0
0
0
0
0
0
0
0
0
0
0
0
0
0
0
0
0
0
0
0
0
0
0
0
0
0
0
9.36633
9.33066
8.04142
9.25902
7.69325
7.78758
9.09454
10.208
11.1703
21.7759
3.2041
0
0
0
0
0
0
0
0
0
0
0
0
0
0
0
0
0
0
0
0
0
0
0
0
0
0
0
0
0
0
0
0
0
0
0
0
0
0
0
7.92952
10.0992
10.1145
8.86149
11.2589
12.4355
10.8064
8.57914
8.60392
43.2779
0
0
0
0
0
0
0
0
0
0
0
0
0
0
0
0
0
0
0
0
0
0
0
0
0
0
0
0
0
0
0
0
0
0
0
0
0
0
0
0
13.2058
10.8439
11.0393
13.0106
10.7272
10.2862
9.48307
9.57063
8.67562
33.2233
0
0
0
0
0
0
0
0
0
0
0
0
0
0
0
0
0
0
0
0
0
0
0
0
0
0
0
0
0
0
0
0
0
0
0
0
0
0
0
0
8.71388
9.82855
9.83715
7.65861
8.9401
7.02241
6.34758
6.44313
5.90605
26.1906
0
0
0
0
0
0
0
0
0
0
0
0
0
0
0
0
0
0
0
0
0
0
0
0
0
0
0
0
0
0
0
0
0
0
0
0
0
0
0
0
7.061
5.55892
5.71513
6.83869
5.56628
5.6724
5.42452
5.43401
4.26976
17.1298
0
0
0
0
0
0
0
0
0
0
0
0
0
0
0
0
0
0
0
0
0
0
0
0
0
0
0
0
0
0
0
0
0
0
0
0
0
0
0
0
6.55202
6.55536
6.55982
5.31204
5.40986
6.30896
5.08555
5.09432
5.2091
10.3371
0
0
0
0
0
0
0
0
0
0
0
0
0
0
0
0
0
0
0
0
0
0
0
0
0
0
0
0
0
0
0
0
0
0
0
0
0
0
0
0
5.52783
5.53996
5.54196
5.54121
5.54439
4.52522
5.16545
5.22779
16.4546
0
0
0
0
0
0
0
0
0
0
0
0
0
0
0
0
0
0
0
0
0
0
0
0
0
0
0
0
0
0
0
0
0
0
0
0
0
0
0
0
0
3.60674
3.66202
3.98033
3.98143
3.98244
3.98396
3.23505
3.31189
11.5415
0
0
0
0
0
0
0
0
0
0
0
0
0
0
0
0
0
0
0
0
0
0
0
0
0
0
0
0
0
0
0
0
0
0
0
0
0
0
0
0
0
6.01719
6.36025
5.75447
5.75462
5.75506
5.75536
5.75588
5.76119
8.30564
0
0
0
0
0
0
0
0
0
0
0
0
0
0
0
0
0
0
0
0
0
0
0
0
0
0
0
0
0
0
0
0
0
0
0
0
0
0
0
0
0
3.29611
2.74112
2.74112
2.74112
2.74112
2.74112
2.74112
2.74112
2.74112
0
0
0
0
0
0
0
0
0
0
0
0
0
0
0
0
0
0
0
0
0
0
0
0
0
0
0
0
0
0
0
0
0
0
0
0
0
0
0
0
0
0
0
0
0
0
0
0
0
0
0
0
0
0
0
0
0
0
0
0
0
0
0
0
0
0
0
0
0
0
0
0
0
0
0
0
0
0
0
0
0
0
0
0
0
0
0
0
0
0
0
