# vtk DataFile Version 4.0
Nusif Fluid VTK output
ASCII
DATASET STRUCTURED_POINTS
DIMENSIONS 50 20 1
ORIGIN 0 0 0 
SPACING 0.2 0.2 1
POINT_DATA 1000 

VECTORS velocity double
0.0651596 -0.0651596  0
0.0500111 -0.117264  0
0.0406797 -0.0709766  0
0.16124 -0.0502619  0
0.251502 -0.0413672  0
0.328476 -0.0370005  0
0.398703 -0.0346483  0
0.465138 -0.0334127  0
0.529678 -0.0327324  0
0.593205 -0.032151  0
0.655833 -0.0320439  0
0.718226 -0.0317647  0
0.781042 -0.0322068  0
0.84485 -0.0330868  0
0.910852 -0.0343335  0
0.979502 -0.035511  0
1.04705 -0.0333277  0
1.10807 -0.0289562  0
1.16331 -0.0275742  0
1.21595 -0.0263261  0
1.26563 -0.0246416  0
1.31304 -0.024037  0
1.35879 -0.0229926  0
1.40472 -0.0242038  0
1.45033 -0.0226688  0
1.49634 -0.0246273  0
1.54142 -0.0216978  0
1.58682 -0.024996  0
1.63148 -0.0209088  0
1.67733 -0.0262372  0
1.72311 -0.0207921  0
1.77011 -0.027482  0
1.81684 -0.0205185  0
1.86318 -0.0270823  0
1.9086 -0.0196209  0
1.95154 -0.0245719  0
1.99376 -0.0189396  0
2.03292 -0.0214759  0
2.07295 -0.0198871  0
2.11103 -0.0195187  0
2.15091 -0.0215695  0
2.18955 -0.0183325  0
2.22866 -0.0220939  0
2.26708 -0.0175224  0
2.30557 -0.0222331  0
2.34704 -0.0205479  0
2.39539 -0.0290326  0
2.45794 -0.0347652  0
2.51699 -0.0255563  0
2.54192 -0.00398809  0
0.0433728 -0.174322  0
0.0880971 -0.23588  0
0.120533 -0.173686  0
0.188615 -0.13816  0
0.261584 -0.11933  0
0.331606 -0.108698  0
0.398248 -0.102533  0
0.462402 -0.0991286  0
0.525347 -0.09712  0
0.587165 -0.0958223  0
0.648443 -0.094938  0
0.709443 -0.0947689  0
0.770377 -0.0957212  0
0.832789 -0.0982321  0
0.898162 -0.103115  0
0.969062 -0.108884  0
1.03841 -0.0993347  0
1.09549 -0.0836149  0
1.1463 -0.0814687  0
1.19752 -0.0788312  0
1.24762 -0.0744143  0
1.29649 -0.0730955  0
1.3441 -0.0698079  0
1.39152 -0.073276  0
1.43853 -0.0687473  0
1.48574 -0.07428  0
1.53212 -0.0660638  0
1.57867 -0.0750542  0
1.6244 -0.0638273  0
1.67075 -0.0779817  0
1.71679 -0.0634602  0
1.76341 -0.0809017  0
1.80973 -0.0627156  0
1.85573 -0.0797258  0
1.90082 -0.0600178  0
1.94419 -0.0730235  0
1.98653 -0.0575622  0
2.02622 -0.0642728  0
2.06623 -0.0596851  0
2.10452 -0.0586393  0
2.14398 -0.0642807  0
2.18243 -0.0552159  0
2.22134 -0.0657604  0
2.2594 -0.0528819  0
2.2972 -0.0656466  0
2.33624 -0.0601759  0
2.37786 -0.0819016  0
2.43021 -0.0993118  0
2.48564 -0.0780092  0
2.51191 -0.00797618  0
0.0340826 -0.253039  0
0.0921064 -0.261805  0
0.145467 -0.235468  0
0.207077 -0.208617  0
0.271541 -0.188827  0
0.335353 -0.175556  0
0.397632 -0.167166  0
0.458606 -0.162211  0
0.518708 -0.159272  0
0.57816 -0.157452  0
0.637029 -0.155909  0
0.695665 -0.155723  0
0.75427 -0.156987  0
0.8132 -0.160661  0
0.874244 -0.169441  0
0.941365 -0.183191  0
1.00925 -0.164752  0
1.06254 -0.130473  0
1.11244 -0.136533  0
1.17256 -0.136389  0
1.21901 -0.114609  0
1.27879 -0.14284  0
1.32107 -0.0911863  0
1.38235 -0.161863  0
1.41938 -0.0654755  0
1.48239 -0.188998  0
1.51458 -0.0312261  0
1.58118 -0.224224  0
1.60901 0.0104445  0
1.67557 -0.266334  0
1.70324 0.0498427  0
1.7612 -0.299984  0
1.79814 0.0718127  0
1.83765 -0.301004  0
1.89427 0.0583069  0
1.91135 -0.253081  0
1.98947 0.000810789  0
1.99024 -0.164421  0
2.07714 -0.0876731  0
2.07556 -0.0685837  0
2.15115 -0.170661  0
2.16304 -0.000422705  0
2.21478 -0.212419  0
2.24879 0.0203586  0
2.27813 -0.207249  0
2.33158 -0.0122799  0
2.3349 -0.176035  0
2.38403 -0.107923  0
2.36286 -0.104906  0
2.35844 -0.056441  0
0.0317673 -0.31952  0
0.0933603 -0.316205  0
0.154765 -0.297097  0
0.216561 -0.271654  0
0.277794 -0.252746  0
0.33826 -0.237166  0
0.397386 -0.22824  0
0.455914 -0.221842  0
0.513528 -0.218531  0
0.57068 -0.215951  0
0.627728 -0.214688  0
0.684167 -0.213218  0
0.741078 -0.216075  0
0.794168 -0.214991  0
0.837204 -0.220397  0
0.869958 -0.233313  0
0.883635 -0.197489  0
0.990491 -0.174559  0
1.12051 -0.0826382  0
1.15476 -0.0838838  0
1.2289 -0.0648359  0
1.25833 -0.0937816  0
1.34008 -0.044371  0
1.35737 -0.112791  0
1.44594 -0.019397  0
1.44986 -0.139345  0
1.5494 0.0131399  0
1.54096 -0.174165  0
1.64943 0.053363  0
1.63642 -0.21459  0
1.73521 0.0925108  0
1.7397 -0.246564  0
1.79994 0.11401  0
1.85296 -0.248361  0
1.85054 0.0987038  0
1.97062 -0.20463  0
1.90646 0.0394334  0
2.07755 -0.121624  0
1.98498 -0.0478751  0
2.15564 -0.029463  0
2.08522 -0.12795  0
2.20384 0.0364607  0
2.19552 -0.168752  0
2.24387 0.0557182  0
2.3065 -0.163835  0
2.29091 0.0273481  0
2.40563 -0.123166  0
2.31332 -0.0433769  0
2.37194 -0.0524529  0
2.35844 -0.0524529  0
0.0291388 -0.175644  0
0.0820546 -0.173015  0
0.132685 -0.164338  0
0.194104 -0.150935  0
0.260166 -0.141882  0
0.325337 -0.133308  0
0.389425 -0.128958  0
0.450603 -0.125347  0
0.510352 -0.123646  0
0.568706 -0.122171  0
0.626056 -0.121673  0
0.685097 -0.120499  0
0.740054 -0.122603  0
0.791302 -0.119475  0
0.841224 -0.119737  0
0.848966 -0.123495  0
0.858885 -0.0987446  0
0.441818 -0.0987446  0
0 0  0
0 0  0
0 0  0
0 0  0
0 0  0
0 0  0
0 0  0
0 0  0
0 0  0
0 0  0
0 0  0
0 0  0
0 0  0
0 0  0
0 0  0
0 0  0
0 0  0
0 0  0
0 0  0
0 0  0
0 0  0
0 0  0
0 0  0
0 0  0
0 0  0
0 0  0
0 0  0
0 0  0
0 0  0
0 0  0
0 0  0
0 0  0
0 0  0
0 0  0
0 0  0
0 0  0
0 0  0
0 0  0
0 0  0
0 0  0
0 0  0
0 0  0
0 0  0
0 0  0
0 0  0
0 0  0
0 0  0
0 0  0
0 0  0
0 0  0
0 0  0
0 0  0
0 0  0
0 0  0
0 0  0
0 0  0
0 0  0
0 0  0
0 0  0
0 0  0
0 0  0
0 0  0
0 0  0
0 0  0
0 0  0
0 0  0
0 0  0
0 0  0
0 0  0
0 0  0
0 0  0
0 0  0
0 0  0
0 0  0
0 0  0
0 0  0
0 0  0
0 0  0
0 0  0
0 0  0
0 0  0
0 0  0
0 0  0
0 0  0
0 0  0
0 0  0
0 0  0
0 0  0
0 0  0
0 0  0
0 0  0
0 0  0
0 0  0
0 0  0
0 0  0
0 0  0
0 0  0
0 0  0
0 0  0
0 0  0
0 0  0
0 0  0
0 0  0
0 0  0
0 0  0
0 0  0
0 0  0
0 0  0
0 0  0
0 0  0
0 0  0
0 0  0
0 0  0
0 0  0
0 0  0
0 0  0
0 0  0
0 0  0
0 0  0
0 0  0
0 0  0
0 0  0
0 0  0
0 0  0
0 0  0
0 0  0
0 0  0
0 0  0
0 0  0
0 0  0
0 0  0
0 0  0
0 0  0
0 0  0
0 0  0
0 0  0
0 0  0
0 0  0
0 0  0
0 0  0
0 0  0
0 0  0
0 0  0
0 0  0
0 0  0
0 0  0
0 0  0
0 0  0
0 0  0
0 0  0
0 0  0
0 0  0
0 0  0
0 0  0
0 0  0
0 0  0
0 0  0
0 0  0
0 0  0
0 0  0
0 0  0
0 0  0
0 0  0
0 0  0
0 0  0
0 0  0
0 0  0
0 0  0
0 0  0
0 0  0
0 0  0
0 0  0
0 0  0
0 0  0
0 0  0
0 0  0
0 0  0
0 0  0
0 0  0
0 0  0
0 0  0
0 0  0
0 0  0
0 0  0
0 0  0
0 0  0
0 0  0
0 0  0
0 0  0
0 0  0
0 0  0
0 0  0
0 0  0
0 0  0
0 0  0
0 0  0
0 0  0
0 0  0
0 0  0
0 0  0
0 0  0
0 0  0
0 0  0
0 0  0
0 0  0
0 0  0
0 0  0
0 0  0
0 0  0
0 0  0
0 0  0
0 0  0
0 0  0
0 0  0
0 0  0
0 0  0
0 0  0
0 0  0
0 0  0
0 0  0
0 0  0
0 0  0
0 0  0
0 0  0
0 0  0
0 0  0
0 0  0
0 0  0
0 0  0
0 0  0
0 0  0
0 0  0
0 0  0
0 0  0
0 0  0
0 0  0
0 0  0
0 0  0
0 0  0
0 0  0
0 0  0
0 0  0
0 0  0
0 0  0
0 0  0
0 0  0
0 0  0
0 0  0
0 0  0
0 0  0
0 0  0
0 0  0
0 0  0
0 0  0
0 0  0
0 0  0
0 0  0
0 0  0
0 0  0
0 0  0
0 0  0
0 0  0
0 0  0
0 0  0
0 0  0
0 0  0
0 0  0
0 0  0
0 0  0
0 0  0
0 0  0
0 0  0
0 0  0
0 0  0
0 0  0
0 0  0
0 0  0
0 0  0
0 0  0
0 0  0
0 0  0
0 0  0
0 0  0
0 0  0
0 0  0
0 0  0
0 0  0
0 0  0
0 0  0
0 0  0
0 0  0
0 0  0
0 0  0
0 0  0
0 0  0
0 0  0
0 0  0
0 0  0
0 0  0
0 0  0
0 0  0
0 0  0
0 0  0
0 0  0
0 0  0
0 0  0
0 0  0
0 0  0
0 0  0
0 0  0
0 0  0
0 0  0
0 0  0
0 0  0
0 0  0
0 0  0
0 0  0
0 0  0
0 0  0
0 0  0
0 0  0
0 0  0
0 0  0
0 0  0
0 0  0
0 0  0
0 0  0
0 0  0
0 0  0
0 0  0
0 0  0
0 0  0
0 0  0
0 0  0
0 0  0
0 0  0
0 0  0
0 0  0
0 0  0
0 0  0
0 0  0
0 0  0
0 0  0
0 0  0
0 0  0
0 0  0
0 0  0
0 0  0
0 0  0
0 0  0
0 0  0
0 0  0
0 0  0
0 0  0
0 0  0
0 0  0
0 0  0
0 0  0
0 0  0
0 0  0
0 0  0
0 0  0
0 0  0
0 0  0
0 0  0
0 0  0
0 0  0
0 0  0
0 0  0
0 0  0
0 0  0
0 0  0
0 0  0
0 0  0
0 0  0
0 0  0
0 0  0
0 0  0
0 0  0
0 0  0
0 0  0
0 0  0
0 0  0
0 0  0
0 0  0
0 0  0
0 0  0
0 0  0
0 0  0
0 0  0
0 0  0
0 0  0
0 0  0
0 0  0
0 0  0
0 0  0
0 0  0
0 0  0
0 0  0
0 0  0
0 0  0
0 0  0
0 0  0
0 0  0
0 0  0
0 0  0
0 0  0
0 0  0
0 0  0
0 0  0
0 0  0
0 0  0
0 0  0
0 0  0
0 0  0
0 0  0
0 0  0
0 0  0
0 0  0
0 0  0
0 0  0
0 0  0
0 0  0
0 0  0
0 0  0
0 0  0
0 0  0
0 0  0
0 0  0
0 0  0
0 0  0
0 0  0
0 0  0
0 0  0
0 0  0
0 0  0
0 0  0
0 0  0
0 0  0
0 0  0
0 0  0
0 0  0
0 0  0
0 0  0
0 0  0
0 0  0
0 0  0
0 0  0
0 0  0
0 0  0
0 0  0
0 0  0
0 0  0
0 0  0
0 0  0
0 0  0
0 0  0
0 0  0
0 0  0
0 0  0
0 0  0
0 0  0
0 0  0
0 0  0
0 0  0
0 0  0
0 0  0
0 0  0
0 0  0
0 0  0
0 0  0
0 0  0
0 0  0
0 0  0
0 0  0
0 0  0
0 0  0
0 0  0
0 0  0
0 0  0
0 0  0
0 0  0
0 0  0
0 0  0
0 0  0
0 0  0
0 0  0
0 0  0
0 0  0
0 0  0
0 0  0
0 0  0
0 0  0
0 0  0
0 0  0
0 0  0
0 0  0
0 0  0
0 0  0
0 0  0
0 0  0
0 0  0
0 0  0
0 0  0
0 0  0
0 0  0
0 0  0
0 0  0
0 0  0
0 0  0
0 0  0
0 0  0
0 0  0
0 0  0
0 0  0
0 0  0
0 0  0
0 0  0
0 0  0
0 0  0
0 0  0
0 0  0
0 0  0
0 0  0
0 0  0
0 0  0
0 0  0
0 0  0
0 0  0
0 0  0
0 0  0
0 0  0
0 0  0
0 0  0
0 0  0
0 0  0
0 0  0
0 0  0
0 0  0
0 0  0
0 0  0
0 0  0
0 0  0
0 0  0
0 0  0
0 0  0
0 0  0
0 0  0
0 0  0
0 0  0
0 0  0
0 0  0
0 0  0
0 0  0
0 0  0
0 0  0
0 0  0
0 0  0
0 0  0
0 0  0
0 0  0
0 0  0
0 0  0
0 0  0
0 0  0
0 0  0
0 0  0
0 0  0
0 0  0
0 0  0
0 0  0
0 0  0
0 0  0
0 0  0
0 0  0
0 0  0
0 0  0
0 0  0
0 0  0
0 0  0
0 0  0
0 0  0
0 0  0
0 0  0
0 0  0
0 0  0
0 0  0
0 0  0
0 0  0
0 0  0
0 0  0
0 0  0
0 0  0
0 0  0
0 0  0
0 0  0
0 0  0
0 0  0
0 0  0
0 0  0
0 0  0
0 0  0
0 0  0
0 0  0
0 0  0
0 0  0
0 0  0
0 0  0
0 0  0
0 0  0
0 0  0
0 0  0
0 0  0
0 0  0
0 0  0
0 0  0
0 0  0
0 0  0
0 0  0
0 0  0
0 0  0
0 0  0
0 0  0
0 0  0
0 0  0
0 0  0
0 0  0
0 0  0
0 0  0
0 0  0
0 0  0
0 0  0
0 0  0
0 0  0
0 0  0
0 0  0
0 0  0
0 0  0
0 0  0
0 0  0
0 0  0
0 0  0
0 0  0
0 0  0
0 0  0
0 0  0
0 0  0
0 0  0
0 0  0
0 0  0
0 0  0
0 0  0
0 0  0
0 0  0
0 0  0
0 0  0
0 0  0
0 0  0
0 0  0
0 0  0
0 0  0
0 0  0
0 0  0
0 0  0
0 0  0
0 0  0
0 0  0
0 0  0
0 0  0
0 0  0
0 0  0
0 0  0
0 0  0
0 0  0
0 0  0
0 0  0
0 0  0
0 0  0
0 0  0
0 0  0
0 0  0
0 0  0
0 0  0
0 0  0
0 0  0
0 0  0
0 0  0
0 0  0
0 0  0
0 0  0
0 0  0
0 0  0
0 0  0
0 0  0
0 0  0
0 0  0
0 0  0
0 0  0
0 0  0
0 0  0
0 0  0
0 0  0
0 0  0
0 0  0
0 0  0
0 0  0
0 0  0
0 0  0
0 0  0
0 0  0
0 0  0
0 0  0
0 0  0
0 0  0
0 0  0
0 0  0
0 0  0
0 0  0
0 0  0
0 0  0
0 0  0
0 0  0
0 0  0
0 0  0
0 0  0
0 0  0
0 0  0
0 0  0
0 0  0
0 0  0
0 0  0
0 0  0
0 0  0
0 0  0
0 0  0
0 0  0
0 0  0
0 0  0
0 0  0
0 0  0
0 0  0
0 0  0
0 0  0
0 0  0
0 0  0
0 0  0
0 0  0
0 0  0
0 0  0
0 0  0
0 0  0
0 0  0
0 0  0
0 0  0
0 0  0
0 0  0
0 0  0
0 0  0
0 0  0
0 0  0
0 0  0
0 0  0
0 0  0
0 0  0
0 0  0
0 0  0
0 0  0
0 0  0
0 0  0
0 0  0
0 0  0
0 0  0
0 0  0
0 0  0
0 0  0
0 0  0
0 0  0
0 0  0
0 0  0
0 0  0
0 0  0
0 0  0

SCALARS pressure double 1
LOOKUP_TABLE default
0.0987305
0
0.105519
0.327785
0.455766
0.532616
0.579871
0.609159
0.628534
0.638923
0.644092
0.645128
0.640617
0.629922
0.611493
0.579198
0.531327
0.479155
0.446072
0.42688
0.414906
0.41137
0.406412
0.410913
0.406802
0.416525
0.411072
0.426602
0.418335
0.439204
0.425739
0.448201
0.428095
0.446538
0.422904
0.433593
0.41534
0.418575
0.414577
0.412314
0.421674
0.41277
0.425964
0.412826
0.42172
0.407299
0.404755
0.377863
0.325382
0.280994
0.0247033
-0.032736
0.077179
0.195272
0.281646
0.33885
0.375791
0.399487
0.415156
0.422451
0.428314
0.427003
0.424752
0.416808
0.401238
0.370467
0.312847
0.237866
0.21193
0.199383
0.188049
0.193721
0.17903
0.200711
0.174733
0.213424
0.171464
0.23291
0.169883
0.256468
0.169838
0.27372
0.169684
0.271562
0.16976
0.24556
0.176368
0.208695
0.196663
0.183403
0.222696
0.174034
0.23575
0.173039
0.228892
0.176653
0.208101
0.180608
0.118942
0
-0.01295
-0.0181341
0.021764
0.0714643
0.113875
0.143552
0.16396
0.177423
0.185704
0.190493
0.19268
0.19345
0.192144
0.187968
0.18452
0.165948
0.092238
-0.0681501
-0.0548571
-0.0420756
-0.0762985
-0.0145295
-0.107776
0.0270505
-0.149008
0.0767462
-0.205078
0.141688
-0.272912
0.213819
-0.335251
0.266245
-0.35951
0.260357
-0.313073
0.17397
-0.191596
0.0285726
-0.0337862
-0.117747
0.095249
-0.207177
0.147874
-0.217712
0.123212
-0.162308
0.0537215
0
-0.0291845
0
-0.0635695
-0.0647663
-0.0615066
-0.0636304
-0.0594393
-0.0606046
-0.0584385
-0.0584234
-0.0575715
-0.0574575
-0.0568508
-0.0580435
-0.0544098
-0.0587343
-0.0368274
0
-0.0454933
0
0
0
0
0
0
0
0
0
0
0
0
0
0
0
0
0
0
0
0
0
0
0
0
0
0
0
0
0
0
0
0
0
0
0
0
0
0
0
0
0
0
0
0
0
0
0
0
0
0
0
0
0
0
0
0
0
0
0
0
0
0
0
0
0
0
0
0
0
0
0
0
0
0
0
0
0
0
0
0
0
0
0
0
0
0
0
0
0
0
0
0
0
0
0
0
0
0
0
0
0
0
0
0
0
0
0
0
0
0
0
0
0
0
0
0
0
0
0
0
0
0
0
0
0
0
0
0
0
0
0
0
0
0
0
0
0
0
0
0
0
0
0
0
0
0
0
0
0
0
0
0
0
0
0
0
0
0
0
0
0
0
0
0
0
0
0
0
0
0
0
0
0
0
0
0
0
0
0
0
0
0
0
0
0
0
0
0
0
0
0
0
0
0
0
0
0
0
0
0
0
0
0
0
0
0
0
0
0
0
0
0
0
0
0
0
0
0
0
0
0
0
0
0
0
0
0
0
0
0
0
0
0
0
0
0
0
0
0
0
0
0
0
0
0
0
0
0
0
0
0
0
0
0
0
0
0
0
0
0
0
0
0
0
0
0
0
0
0
0
0
0
0
0
0
0
0
0
0
0
0
0
0
0
0
0
0
0
0
0
0
0
0
0
0
0
0
0
0
0
0
0
0
0
0
0
0
0
0
0
0
0
0
0
0
0
0
0
0
0
0
0
0
0
0
0
0
0
0
0
0
0
0
0
0
0
0
0
0
0
0
0
0
0
0
0
0
0
0
0
0
0
0
0
0
0
0
0
0
0
0
0
0
0
0
0
0
0
0
0
0
0
0
0
0
0
0
0
0
0
0
0
0
0
0
0
0
0
0
0
0
0
0
0
0
0
0
0
0
0
0
0
0
0
0
0
0
0
0
0
0
0
0
0
0
0
0
0
0
0
0
0
0
0
0
0
0
0
0
0
0
0
0
0
0
0
0
0
0
0
0
0
0
0
0
0
0
0
0
0
0
0
0
0
0
0
0
0
0
0
0
0
0
0
0
0
0
0
0
0
0
0
0
0
0
0
0
0
0
0
0
0
0
0
0
0
0
0
0
0
0
0
0
0
0
0
0
0
0
0
0
0
0
0
0
0
0
0
0
0
0
0
0
0
0
0
0
0
0
0
0
0
0
0
0
0
0
0
0
0
0
0
0
0
0
0
0
0
0
0
0
0
0
0
0
0
0
0
0
0
0
0
0
0
0
0
0
0
0
0
0
0
0
0
0
0
0
0
0
0
0
0
0
0
0
0
0
0
0
0
0
0
0
0
0
0
0
0
0
0
0
0
0
0
0
0
0
0
0
0
0
0
0
0
0
0
0
0
0
0
0
0
0
0
0
0
0
0
0
0
0
0
0
0
0
0
0
0
0
0
0
0
0
0
0
0
0
0
0
0
0
0
0
0
0
0
0
0
0
0
0
0
0
0
0
0
0
0
0
0
0
0
0
0
0
0
0
0
0
0
0
0
0
0
0
0
0
0
0
0
0
0
0
0
0
0
0
0
0
0
0
0
0
0
0
0
0
0
0
0
0
0
0
0
0
0
0
0
0
0
0
0
0
0
0
0
0
0
0
0
0
0
0
0
0
0
0
0
0
0
0
0
0
0
0
0
0
0
0
0
0
0
0
0
0
0
0
0
0
0
0
0
0
0
0
0
0
0
0
0
0
0
0
0
0
0
0
0
0
0
0
0
0
0
0
0
0
0
0
0
0
0
0
0
0
0
0
0
0
0
0
0
0
0
0
0
0
0
0
0
0
0
0
0
0
0
0
0
0
0
0
0
0
0
0
0
0
0
0
0
0
0
0
0
0
0
0
0
0
0
0
0
0
SCALARS rhs double 1
LOOKUP_TABLE default
-4.50826
-5.16927
-4.51031
-5.68201
-5.64593
-5.60269
-5.57275
-5.55955
-5.57536
-5.54993
-5.56678
-5.56174
-5.55503
-5.5737
-5.58985
-5.60449
-5.57989
-5.54617
-5.52114
-5.49432
-5.47996
-5.4588
-5.46934
-5.45172
-5.47453
-5.44479
-5.47455
-5.43771
-5.47706
-5.44136
-5.48186
-5.44827
-5.47692
-5.44591
-5.45732
-5.43481
-5.43362
-5.42977
-5.42145
-5.43093
-5.41912
-5.43027
-5.41243
-5.42861
-5.41999
-5.46597
-5.52129
-5.57232
-4.9591
-5.91515
-0.526612
0.510266
-0.476905
-0.577567
-0.569066
-0.548687
-0.528984
-0.537522
-0.52253
-0.535786
-0.521019
-0.521472
-0.536732
-0.531383
-0.562244
-0.582468
-0.454579
-0.434341
-0.426072
-0.380092
-0.437398
-0.355711
-0.488374
-0.367447
-0.588811
-0.43163
-0.776725
-0.590103
-1.10055
-0.82162
-1.49363
-0.979451
-1.67413
-0.941353
-1.35506
-0.667446
-0.721572
-0.344853
-0.355388
-0.471561
-0.435821
-0.772183
-0.570651
-0.814702
-0.508202
-0.62102
-0.420106
-0.436643
0.0264807
2.76046
-0.454032
-0.404394
-0.451378
-0.464271
-0.456523
-0.451236
-0.444447
-0.45292
-0.432615
-0.438588
-0.434568
-0.433207
-0.439276
-0.444187
-0.464485
-0.429125
-0.0885259
1.61015
0.70468
3.28689
3.58275
6.04845
5.44594
5.3484
6.05839
9.36982
9.39144
9.23416
17.3985
17.584
16.5405
15.1397
13.2113
11.1324
11.482
12.5642
12.5497
10.5656
6.61195
6.58221
6.3713
4.6744
3.38126
4.30916
3.07168
1.12309
1.78227
2.34427
0.157543
0
0.407854
0.430037
0.504616
0.565425
0.696729
0.7891
1.90098
1.90072
2.81568
4.34845
3.99334
2.79355
5.92473
5.58366
10.6883
12.8693
14.0969
15.7691
35.7955
28.0565
20.5298
16.247
13.5584
10.8402
10.7865
8.4957
6.05141
2.40646
0
0
0
0
0
0
0
0
0
0
0
0
0
0
0
0
0
0
0
0
0
0
5.36272
5.33529
5.71969
5.67828
4.75936
4.29628
3.76069
4.49375
4.93377
7.83712
7.96544
8.66736
9.26158
8.97228
43.8307
32.8547
19.5017
9.00999
0
0
0
0
0
0
0
0
0
0
0
0
0
0
0
0
0
0
0
0
0
0
0
0
0
0
0
0
0
0
0
0
6.36602
6.31525
5.9657
5.40632
4.81609
4.65051
4.54086
5.49725
6.68708
4.04255
4.68643
4.81997
12.4974
35.3186
0
0
0
0
0
0
0
0
0
0
0
0
0
0
0
0
0
0
0
0
0
0
0
0
0
0
0
0
0
0
0
0
0
0
0
0
1.47614
1.54411
2.09799
2.47435
3.77929
5.12603
6.33856
5.10183
2.09579
1.47098
2.53607
14.3387
26.3021
0
0
0
0
0
0
0
0
0
0
0
0
0
0
0
0
0
0
0
0
0
0
0
0
0
0
0
0
0
0
0
0
0
0
0
0
0
2.59543
2.54951
1.62039
1.22694
0.49828
0.777197
0.916648
3.70181
7.89906
8.9678
11.6117
27.2717
0
0
0
0
0
0
0
0
0
0
0
0
0
0
0
0
0
0
0
0
0
0
0
0
0
0
0
0
0
0
0
0
0
0
0
0
0
0
2.45787
2.59584
4.01582
4.53242
6.43299
7.47839
9.23983
7.89527
5.98596
8.49533
41.2731
0
0
0
0
0
0
0
0
0
0
0
0
0
0
0
0
0
0
0
0
0
0
0
0
0
0
0
0
0
0
0
0
0
0
0
0
0
0
0
9.36633
9.33066
8.04142
9.25902
7.69325
7.78758
9.09454
10.208
11.1703
21.7759
3.2041
0
0
0
0
0
0
0
0
0
0
0
0
0
0
0
0
0
0
0
0
0
0
0
0
0
0
0
0
0
0
0
0
0
0
0
0
0
0
0
7.92952
10.0992
10.1145
8.86149
11.2589
12.4355
10.8064
8.57914
8.60392
43.2779
0
0
0
0
0
0
0
0
0
0
0
0
0
0
0
0
0
0
0
0
0
0
0
0
0
0
0
0
0
0
0
0
0
0
0
0
0
0
0
0
13.2058
10.8439
11.0393
13.0106
10.7272
10.2862
9.48307
9.57063
8.67562
33.2233
0
0
0
0
0
0
0
0
0
0
0
0
0
0
0
0
0
0
0
0
0
0
0
0
0
0
0
0
0
0
0
0
0
0
0
0
0
0
0
0
8.71388
9.82855
9.83715
7.65861
8.9401
7.02241
6.34758
6.44313
5.90605
26.1906
0
0
0
0
0
0
0
0
0
0
0
0
0
0
0
0
0
0
0
0
0
0
0
0
0
0
0
0
0
0
0
0
0
0
0
0
0
0
0
0
7.061
5.55892
5.71513
6.83869
5.56628
5.6724
5.42452
5.43401
4.26976
17.1298
0
0
0
0
0
0
0
0
0
0
0
0
0
0
0
0
0
0
0
0
0
0
0
0
0
0
0
0
0
0
0
0
0
0
0
0
0
0
0
0
6.55202
6.55536
6.55982
5.31204
5.40986
6.30896
5.08555
5.09432
5.2091
10.3371
0
0
0
0
0
0
0
0
0
0
0
0
0
0
0
0
0
0
0
0
0
0
0
0
0
0
0
0
0
0
0
0
0
0
0
0
0
0
0
0
5.52783
5.53996
5.54196
5.54121
5.54439
4.52522
5.16545
5.22779
16.4546
0
0
0
0
0
0
0
0
0
0
0
0
0
0
0
0
0
0
0
0
0
0
0
0
0
0
0
0
0
0
0
0
0
0
0
0
0
0
0
0
0
3.60674
3.66202
3.98033
3.98143
3.98244
3.98396
3.23505
3.31189
11.5415
0
0
0
0
0
0
0
0
0
0
0
0
0
0
0
0
0
0
0
0
0
0
0
0
0
0
0
0
0
0
0
0
0
0
0
0
0
0
0
0
0
6.01719
6.36025
5.75447
5.75462
5.75506
5.75536
5.75588
5.76119
8.30564
0
0
0
0
0
0
0
0
0
0
0
0
0
0
0
0
0
0
0
0
0
0
0
0
0
0
0
0
0
0
0
0
0
0
0
0
0
0
0
0
0
3.29611
2.74112
2.74112
2.74112
2.74112
2.74112
2.74112
2.74112
2.74112
0
0
0
0
0
0
0
0
0
0
0
0
0
0
0
0
0
0
0
0
0
0
0
0
0
0
0
0
0
0
0
0
0
0
0
0
0
0
0
0
0
0
0
0
0
0
0
0
0
0
0
0
0
0
0
0
0
0
0
0
0
0
0
0
0
0
0
0
0
0
0
0
0
0
0
0
0
0
0
0
0
0
0
0
0
0
0
0
0
0
0
