# vtk DataFile Version 4.0
Nusif Fluid VTK output
ASCII
DATASET STRUCTURED_POINTS
DIMENSIONS 50 20 1
ORIGIN 0 0 0 
SPACING 0.2 0.2 1
POINT_DATA 1000 

VECTORS velocity double
0.0391113 -0.0418571  0
0.118191 -0.0420221  0
0.198307 -0.0423707  0
0.279151 -0.0427488  0
0.360862 -0.0431627  0
0.443226 -0.0434182  0
0.525972 -0.0434601  0
0.608682 -0.0433587  0
0.691481 -0.0435391  0
0.774853 -0.0438902  0
0.859335 -0.0445887  0
0.945174 -0.0451998  0
1.03195 -0.0455144  0
1.1187 -0.0451741  0
1.20344 -0.0433655  0
1.28659 -0.0434468  0
1.37019 -0.0439441  0
1.4536 -0.0431753  0
1.53414 -0.0411258  0
1.60975 -0.0383375  0
1.68055 -0.0361348  0
1.74791 -0.0349919  0
1.8135 -0.0343883  0
1.87771 -0.0335773  0
1.93797 -0.0304388  0
1.99215 -0.0274913  0
2.04258 -0.0266985  0
2.09395 -0.0284306  0
2.14814 -0.0295612  0
2.20188 -0.0280047  0
2.25163 -0.0253567  0
2.29562 -0.0223981  0
2.33321 -0.0190241  0
2.36482 -0.0162682  0
2.39276 -0.0154445  0
2.42199 -0.0175496  0
2.45831 -0.0225236  0
2.50332 -0.0262344  0
2.53829 -0.0124906  0
2.53743 0.00959509  0
2.51165 0.0124315  0
2.50788 -0.010537  0
1.25921 0.000205757  0
0 0  0
0 0  0
0 0  0
0 0  0
0 0  0
0 0  0
0 0  0
0.039061 -0.125164  0
0.118009 -0.125547  0
0.198006 -0.126779  0
0.278694 -0.127939  0
0.360261 -0.129156  0
0.442557 -0.130012  0
0.525131 -0.130059  0
0.607117 -0.129337  0
0.688465 -0.129513  0
0.769445 -0.130009  0
0.850863 -0.13212  0
0.934007 -0.134343  0
1.01916 -0.136004  0
1.10535 -0.135226  0
1.18597 -0.126121  0
1.26112 -0.126417  0
1.33791 -0.128884  0
1.41614 -0.127417  0
1.49311 -0.121875  0
1.56685 -0.114475  0
1.63656 -0.108029  0
1.70398 -0.105382  0
1.77086 -0.10398  0
1.83891 -0.103759  0
1.90095 -0.0900699  0
1.95428 -0.0828725  0
2.00389 -0.078877  0
2.05375 -0.0849999  0
2.10797 -0.0889792  0
2.16276 -0.0845944  0
2.21341 -0.0765837  0
2.25828 -0.0675741  0
2.29765 -0.0583341  0
2.33186 -0.0502877  0
2.36216 -0.047164  0
2.39126 -0.0516674  0
2.42319 -0.0641605  0
2.46218 -0.0761123  0
2.50005 -0.0429593  0
2.5056 0.029746  0
2.49599 0.0239181  0
2.49693 -0.021074  0
1.24847 -0.0103313  0
0 0  0
0 0  0
0 0  0
0 0  0
0 0  0
0 0  0
0 0  0
0.0390605 -0.207527  0
0.117429 -0.208482  0
0.196742 -0.210505  0
0.276935 -0.21253  0
0.3578 -0.21456  0
0.439727 -0.216291  0
0.522378 -0.216433  0
0.603224 -0.213269  0
0.681185 -0.212313  0
0.756746 -0.211139  0
0.831723 -0.21486  0
0.909497 -0.219971  0
0.992507 -0.226014  0
1.08085 -0.227138  0
1.1558 -0.197099  0
1.21723 -0.199586  0
1.2839 -0.206652  0
1.35525 -0.206756  0
1.42787 -0.199647  0
1.49948 -0.189475  0
1.56921 -0.180062  0
1.63743 -0.17649  0
1.70649 -0.17629  0
1.7827 -0.183212  0
1.84029 -0.135877  0
1.89248 -0.146336  0
1.95293 -0.129236  0
2.00046 -0.135793  0
2.05222 -0.147936  0
2.10443 -0.136294  0
2.1541 -0.129007  0
2.20178 -0.111474  0
2.2435 -0.0992202  0
2.28145 -0.0853907  0
2.3164 -0.0810347  0
2.34787 -0.0821119  0
2.371 -0.0925284  0
2.38477 -0.104272  0
2.38929 -0.0609373  0
2.45083 -0.0103177  0
2.52668 0.0114866  0
2.51896 -0.010537  0
1.24847 -0.010537  0
0 0  0
0 0  0
0 0  0
0 0  0
0 0  0
0 0  0
0 0  0
0.0385361 -0.288826  0
0.115825 -0.290595  0
0.193543 -0.293015  0
0.271877 -0.295943  0
0.350883 -0.29862  0
0.431881 -0.302588  0
0.516485 -0.30476  0
0.594774 -0.291439  0
0.664131 -0.288876  0
0.732 -0.285443  0
0.79951 -0.290464  0
0.869724 -0.299786  0
0.946953 -0.31386  0
1.03453 -0.32265  0
1.11027 -0.257808  0
1.16771 -0.261552  0
1.23097 -0.27837  0
1.29879 -0.277905  0
1.36488 -0.271  0
1.43899 -0.267582  0
1.50505 -0.241494  0
1.57709 -0.259073  0
1.63697 -0.226408  0
1.64998 -0.22606  0
1.76815 -0.189276  0
1.89329 -0.0909549  0
1.9412 -0.0770572  0
2.01192 -0.0792238  0
2.0527 -0.0885177  0
2.09369 -0.0797042  0
2.14069 -0.0777803  0
2.18391 -0.0662985  0
2.22857 -0.0599103  0
2.27086 -0.0513712  0
2.31302 -0.0493152  0
2.34945 -0.0479941  0
2.3774 -0.0508915  0
2.36435 -0.0543946  0
2.36536 -0.0304686  0
1.19464 -0.0304686  0
0 0  0
0 0  0
0 0  0
0 0  0
0 0  0
0 0  0
0 0  0
0 0  0
0 0  0
0 0  0
0.0377472 -0.368798  0
0.112924 -0.370615  0
0.187886 -0.373239  0
0.262575 -0.376143  0
0.337728 -0.379919  0
0.415629 -0.38757  0
0.50308 -0.399241  0
0.567575 -0.345245  0
0.629076 -0.369626  0
0.698013 -0.34523  0
0.761445 -0.365317  0
0.826056 -0.36348  0
0.879386 -0.384439  0
0.907152 -0.371128  0
1.02474 -0.329028  0
1.1809 -0.144936  0
1.24143 -0.156657  0
1.29424 -0.155391  0
1.36373 -0.152102  0
1.42021 -0.154244  0
1.50378 -0.133327  0
1.56347 -0.152973  0
1.59703 -0.11971  0
1.6433 -0.11303  0
0.824991 -0.11303  0
0 0  0
0 0  0
0 0  0
0 0  0
0 0  0
0 0  0
0 0  0
0 0  0
0 0  0
0 0  0
0 0  0
0 0  0
0 0  0
0 0  0
0 0  0
0 0  0
0 0  0
0 0  0
0 0  0
0 0  0
0 0  0
0 0  0
0 0  0
0 0  0
0 0  0
0.0357542 -0.444139  0
0.110784 -0.449229  0
0.180615 -0.443198  0
0.252735 -0.456642  0
0.320731 -0.446165  0
0.373959 -0.456152  0
0.400753 -0.448627  0
0.518631 -0.40541  0
0.632787 -0.207089  0
0.693106 -0.184808  0
0.771159 -0.202182  0
0.829976 -0.194522  0
0.870428 -0.206103  0
0.886614 -0.185564  0
0.453576 -0.185564  0
0 0  0
0 0  0
0 0  0
0 0  0
0 0  0
0 0  0
0 0  0
0 0  0
0 0  0
0 0  0
0 0  0
0 0  0
0 0  0
0 0  0
0 0  0
0 0  0
0 0  0
0 0  0
0 0  0
0 0  0
0 0  0
0 0  0
0 0  0
0 0  0
0 0  0
0 0  0
0 0  0
0 0  0
0 0  0
0 0  0
0 0  0
0 0  0
0 0  0
0 0  0
0 0  0
0.04006 -0.239946  0
0.107714 -0.244252  0
0.185466 -0.236877  0
0.252157 -0.249103  0
0.313101 -0.236299  0
0.361973 -0.241473  0
0.383594 -0.224314  0
0.200377 -0.224314  0
0 0  0
0 0  0
0 0  0
0 0  0
0 0  0
0 0  0
0 0  0
0 0  0
0 0  0
0 0  0
0 0  0
0 0  0
0 0  0
0 0  0
0 0  0
0 0  0
0 0  0
0 0  0
0 0  0
0 0  0
0 0  0
0 0  0
0 0  0
0 0  0
0 0  0
0 0  0
0 0  0
0 0  0
0 0  0
0 0  0
0 0  0
0 0  0
0 0  0
0 0  0
0 0  0
0 0  0
0 0  0
0 0  0
0 0  0
0 0  0
0 0  0
0 0  0
0 0  0
0 0  0
0 0  0
0 0  0
0 0  0
0 0  0
0 0  0
0 0  0
0 0  0
0 0  0
0 0  0
0 0  0
0 0  0
0 0  0
0 0  0
0 0  0
0 0  0
0 0  0
0 0  0
0 0  0
0 0  0
0 0  0
0 0  0
0 0  0
0 0  0
0 0  0
0 0  0
0 0  0
0 0  0
0 0  0
0 0  0
0 0  0
0 0  0
0 0  0
0 0  0
0 0  0
0 0  0
0 0  0
0 0  0
0 0  0
0 0  0
0 0  0
0 0  0
0 0  0
0 0  0
0 0  0
0 0  0
0 0  0
0 0  0
0 0  0
0 0  0
0 0  0
0 0  0
0 0  0
0 0  0
0 0  0
0 0  0
0 0  0
0 0  0
0 0  0
0 0  0
0 0  0
0 0  0
0 0  0
0 0  0
0 0  0
0 0  0
0 0  0
0 0  0
0 0  0
0 0  0
0 0  0
0 0  0
0 0  0
0 0  0
0 0  0
0 0  0
0 0  0
0 0  0
0 0  0
0 0  0
0 0  0
0 0  0
0 0  0
0 0  0
0 0  0
0 0  0
0 0  0
0 0  0
0 0  0
0 0  0
0 0  0
0 0  0
0 0  0
0 0  0
0 0  0
0 0  0
0 0  0
0 0  0
0 0  0
0 0  0
0 0  0
0 0  0
0 0  0
0 0  0
0 0  0
0 0  0
0 0  0
0 0  0
0 0  0
0 0  0
0 0  0
0 0  0
0 0  0
0 0  0
0 0  0
0 0  0
0 0  0
0 0  0
0 0  0
0 0  0
0 0  0
0 0  0
0 0  0
0 0  0
0 0  0
0 0  0
0 0  0
0 0  0
0 0  0
0 0  0
0 0  0
0 0  0
0 0  0
0 0  0
0 0  0
0 0  0
0 0  0
0 0  0
0 0  0
0 0  0
0 0  0
0 0  0
0 0  0
0 0  0
0 0  0
0 0  0
0 0  0
0 0  0
0 0  0
0 0  0
0 0  0
0 0  0
0 0  0
0 0  0
0 0  0
0 0  0
0 0  0
0 0  0
0 0  0
0 0  0
0 0  0
0 0  0
0 0  0
0 0  0
0 0  0
0 0  0
0 0  0
0 0  0
0 0  0
0 0  0
0 0  0
0 0  0
0 0  0
0 0  0
0 0  0
0 0  0
0 0  0
0 0  0
0 0  0
0 0  0
0 0  0
0 0  0
0 0  0
0 0  0
0 0  0
0 0  0
0 0  0
0 0  0
0 0  0
0 0  0
0 0  0
0 0  0
0 0  0
0 0  0
0 0  0
0 0  0
0 0  0
0 0  0
0 0  0
0 0  0
0 0  0
0 0  0
0 0  0
0 0  0
0 0  0
0 0  0
0 0  0
0 0  0
0 0  0
0 0  0
0 0  0
0 0  0
0 0  0
0 0  0
0 0  0
0 0  0
0 0  0
0 0  0
0 0  0
0 0  0
0 0  0
0 0  0
0 0  0
0 0  0
0 0  0
0 0  0
0 0  0
0 0  0
0 0  0
0 0  0
0 0  0
0 0  0
0 0  0
0 0  0
0 0  0
0 0  0
0 0  0
0 0  0
0 0  0
0 0  0
0 0  0
0 0  0
0 0  0
0 0  0
0 0  0
0 0  0
0 0  0
0 0  0
0 0  0
0 0  0
0 0  0
0 0  0
0 0  0
0 0  0
0 0  0
0 0  0
0 0  0
0 0  0
0 0  0
0 0  0
0 0  0
0 0  0
0 0  0
0 0  0
0 0  0
0 0  0
0 0  0
0 0  0
0 0  0
0 0  0
0 0  0
0 0  0
0 0  0
0 0  0
0 0  0
0 0  0
0 0  0
0 0  0
0 0  0
0 0  0
0 0  0
0 0  0
0 0  0
0 0  0
0 0  0
0 0  0
0 0  0
0 0  0
0 0  0
0 0  0
0 0  0
0 0  0
0 0  0
0 0  0
0 0  0
0 0  0
0 0  0
0 0  0
0 0  0
0 0  0
0 0  0
0 0  0
0 0  0
0 0  0
0 0  0
0 0  0
0 0  0
0 0  0
0 0  0
0 0  0
0 0  0
0 0  0
0 0  0
0 0  0
0 0  0
0 0  0
0 0  0
0 0  0
0 0  0
0 0  0
0 0  0
0 0  0
0 0  0
0 0  0
0 0  0
0 0  0
0 0  0
0 0  0
0 0  0
0 0  0
0 0  0
0 0  0
0 0  0
0 0  0
0 0  0
0 0  0
0 0  0
0 0  0
0 0  0
0 0  0
0 0  0
0 0  0
0 0  0
0 0  0
0 0  0
0 0  0
0 0  0
0 0  0
0 0  0
0 0  0
0 0  0
0 0  0
0 0  0
0 0  0
0 0  0
0 0  0
0 0  0
0 0  0
0 0  0
0 0  0
0 0  0
0 0  0
0 0  0
0 0  0
0 0  0
0 0  0
0 0  0
0 0  0
0 0  0
0 0  0
0 0  0
0 0  0
0 0  0
0 0  0
0 0  0
0 0  0
0 0  0
0 0  0
0 0  0
0 0  0
0 0  0
0 0  0
0 0  0
0 0  0
0 0  0
0 0  0
0 0  0
0 0  0
0 0  0
0 0  0
0 0  0
0 0  0
0 0  0
0 0  0
0 0  0
0 0  0
0 0  0
0 0  0
0 0  0
0 0  0
0 0  0
0 0  0
0 0  0
0 0  0
0 0  0
0 0  0
0 0  0
0 0  0
0 0  0
0 0  0
0 0  0
0 0  0
0 0  0
0 0  0
0 0  0
0 0  0
0 0  0
0 0  0
0 0  0
0 0  0
0 0  0
0 0  0
0 0  0
0 0  0
0 0  0
0 0  0
0 0  0
0 0  0
0 0  0
0 0  0
0 0  0
0 0  0
0 0  0
0 0  0
0 0  0
0 0  0
0 0  0
0 0  0
0 0  0
0 0  0
0 0  0
0 0  0
0 0  0
0 0  0
0 0  0
0 0  0
0 0  0
0 0  0
0 0  0
0 0  0
0 0  0
0 0  0
0 0  0
0 0  0
0 0  0
0 0  0
0 0  0
0 0  0
0 0  0
0 0  0
0 0  0
0 0  0
0 0  0
0 0  0
0 0  0
0 0  0
0 0  0
0 0  0
0 0  0
0 0  0
0 0  0
0 0  0
0 0  0
0 0  0
0 0  0
0 0  0
0 0  0
0 0  0
0 0  0
0 0  0
0 0  0
0 0  0
0 0  0
0 0  0
0 0  0
0 0  0
0 0  0
0 0  0
0 0  0
0 0  0
0 0  0
0 0  0
0 0  0
0 0  0
0 0  0
0 0  0
0 0  0
0 0  0
0 0  0
0 0  0
0 0  0
0 0  0
0 0  0
0 0  0
0 0  0
0 0  0
0 0  0
0 0  0
0 0  0
0 0  0
0 0  0
0 0  0
0 0  0
0 0  0
0 0  0
0 0  0
0 0  0
0 0  0
0 0  0
0 0  0
0 0  0
0 0  0
0 0  0
0 0  0
0 0  0
0 0  0
0 0  0
0 0  0
0 0  0
0 0  0
0 0  0
0 0  0
0 0  0
0 0  0
0 0  0
0 0  0
0 0  0
0 0  0
0 0  0
0 0  0
0 0  0
0 0  0
0 0  0
0 0  0
0 0  0
0 0  0
0 0  0
0 0  0
0 0  0
0 0  0
0 0  0
0 0  0
0 0  0
0 0  0
0 0  0
0 0  0
0 0  0
0 0  0
0 0  0
0 0  0
0 0  0
0 0  0
0 0  0
0 0  0
0 0  0
0 0  0
0 0  0
0 0  0
0 0  0
0 0  0
0 0  0
0 0  0
0 0  0
0 0  0
0 0  0
0 0  0
0 0  0
0 0  0
0 0  0
0 0  0
0 0  0
0 0  0
0 0  0
0 0  0
0 0  0
0 0  0
0 0  0
0 0  0
0 0  0
0 0  0
0 0  0
0 0  0
0 0  0
0 0  0
0 0  0
0 0  0
0 0  0
0 0  0
0 0  0
0 0  0
0 0  0
0 0  0
0 0  0
0 0  0
0 0  0
0 0  0
0 0  0
0 0  0
0 0  0
0 0  0
0 0  0
0 0  0
0 0  0
0 0  0
0 0  0
0 0  0
0 0  0
0 0  0
0 0  0
0 0  0
0 0  0
0 0  0
0 0  0
0 0  0
0 0  0
0 0  0
0 0  0
0 0  0
0 0  0
0 0  0
0 0  0
0 0  0
0 0  0
0 0  0
0 0  0
0 0  0
0 0  0
0 0  0
0 0  0
0 0  0
0 0  0
0 0  0
0 0  0
0 0  0
0 0  0
0 0  0
0 0  0
0 0  0
0 0  0

SCALARS pressure double 1
LOOKUP_TABLE default
1.39949
1.39517
1.38217
1.3626
1.33474
1.29958
1.25791
1.21314
1.16938
1.12757
1.08624
1.04254
0.993548
0.939175
0.883908
0.837678
0.801051
0.771774
0.745036
0.720571
0.694006
0.662775
0.622237
0.571178
0.514565
0.47912
0.458411
0.446289
0.439762
0.435621
0.43421
0.43263
0.43279
0.43195
0.430438
0.424892
0.410538
0.378518
0.316211
0.228086
0.153501
0
0
0
0
0
0
0
0
0
1.16578
1.16173
1.14927
1.12994
1.10228
1.06558
1.02055
0.971477
0.927048
0.886193
0.847515
0.806159
0.757514
0.698406
0.632927
0.585681
0.553052
0.52728
0.506184
0.486112
0.463968
0.438871
0.399429
0.343602
0.26083
0.234335
0.219547
0.209504
0.206742
0.203349
0.204434
0.205809
0.207006
0.207744
0.209147
0.207423
0.200446
0.1823
0.123901
-0.00578192
0
0.0129597
0
0
0
0
0
0
0
0
0.901908
0.896541
0.886477
0.868123
0.840856
0.802011
0.749035
0.68716
0.642372
0.60498
0.573581
0.538658
0.49328
0.423708
0.327511
0.282407
0.260899
0.243062
0.230237
0.221376
0.204793
0.196837
0.160883
0.110437
-0.0751267
-0.0442753
-0.0475484
-0.0594825
-0.0492921
-0.0572789
-0.0452075
-0.0427115
-0.0372106
-0.0372321
-0.029205
-0.0257646
-0.0198049
0
-0.00315
0
0
0
0
0
0
0
0
0
0
0
0.605766
0.602057
0.593551
0.579433
0.554349
0.515337
0.448369
0.347565
0.313525
0.282172
0.267375
0.24462
0.214831
0.136796
-0.054789
-0.070283
-0.0630553
-0.0725946
-0.0759051
-0.0607436
-0.0893342
-0.0414581
-0.0903873
-0.0193785
0
0
0
0
0
0
0
0
0
0
0
0
0
0
0
0
0
0
0
0
0
0
0
0
0
0
0.277261
0.276962
0.270221
0.266104
0.245621
0.220033
0.144109
-0.0893566
-0.0429571
-0.0831883
-0.0561311
-0.0692676
-0.0436801
-0.0608203
0
0
0
0
0
0
0
0
0
0
0
0
0
0
0
0
0
0
0
0
0
0
0
0
0
0
0
0
0
0
0
0
0
0
0
0
-0.0766847
-0.0671195
-0.0821953
-0.0568498
-0.0849116
-0.0497863
-0.0275556
0
0
0
0
0
0
0
0
0
0
0
0
0
0
0
0
0
0
0
0
0
0
0
0
0
0
0
0
0
0
0
0
0
0
0
0
0
0
0
0
0
0
0
0
0
0
0
0
0
0
0
0
0
0
0
0
0
0
0
0
0
0
0
0
0
0
0
0
0
0
0
0
0
0
0
0
0
0
0
0
0
0
0
0
0
0
0
0
0
0
0
0
0
0
0
0
0
0
0
0
0
0
0
0
0
0
0
0
0
0
0
0
0
0
0
0
0
0
0
0
0
0
0
0
0
0
0
0
0
0
0
0
0
0
0
0
0
0
0
0
0
0
0
0
0
0
0
0
0
0
0
0
0
0
0
0
0
0
0
0
0
0
0
0
0
0
0
0
0
0
0
0
0
0
0
0
0
0
0
0
0
0
0
0
0
0
0
0
0
0
0
0
0
0
0
0
0
0
0
0
0
0
0
0
0
0
0
0
0
0
0
0
0
0
0
0
0
0
0
0
0
0
0
0
0
0
0
0
0
0
0
0
0
0
0
0
0
0
0
0
0
0
0
0
0
0
0
0
0
0
0
0
0
0
0
0
0
0
0
0
0
0
0
0
0
0
0
0
0
0
0
0
0
0
0
0
0
0
0
0
0
0
0
0
0
0
0
0
0
0
0
0
0
0
0
0
0
0
0
0
0
0
0
0
0
0
0
0
0
0
0
0
0
0
0
0
0
0
0
0
0
0
0
0
0
0
0
0
0
0
0
0
0
0
0
0
0
0
0
0
0
0
0
0
0
0
0
0
0
0
0
0
0
0
0
0
0
0
0
0
0
0
0
0
0
0
0
0
0
0
0
0
0
0
0
0
0
0
0
0
0
0
0
0
0
0
0
0
0
0
0
0
0
0
0
0
0
0
0
0
0
0
0
0
0
0
0
0
0
0
0
0
0
0
0
0
0
0
0
0
0
0
0
0
0
0
0
0
0
0
0
0
0
0
0
0
0
0
0
0
0
0
0
0
0
0
0
0
0
0
0
0
0
0
0
0
0
0
0
0
0
0
0
0
0
0
0
0
0
0
0
0
0
0
0
0
0
0
0
0
0
0
0
0
0
0
0
0
0
0
0
0
0
0
0
0
0
0
0
0
0
0
0
0
0
0
0
0
0
0
0
0
0
0
0
0
0
0
0
0
0
0
0
0
0
0
0
0
0
0
0
0
0
0
0
0
0
0
0
0
0
0
0
0
0
0
0
0
0
0
0
0
0
0
0
0
0
0
0
0
0
0
0
0
0
0
0
0
0
0
0
0
0
0
0
0
0
0
0
0
0
0
0
0
0
0
0
0
0
0
0
0
0
0
0
0
0
0
0
0
0
0
0
0
0
0
0
0
0
0
0
0
0
0
0
0
0
0
0
0
0
0
0
0
0
0
0
0
0
0
0
0
0
0
0
0
0
0
0
0
0
0
0
0
0
0
0
0
0
0
0
0
0
0
0
0
0
0
0
0
0
0
0
0
0
0
0
0
0
0
0
0
0
0
0
0
0
0
0
0
0
0
0
0
0
0
0
0
0
0
0
0
0
0
0
0
0
0
0
0
0
0
0
0
0
0
0
0
0
0
0
0
0
0
0
0
0
0
0
0
0
0
0
0
0
0
0
0
0
0
0
0
0
0
0
0
0
0
0
0
0
0
0
SCALARS rhs double 1
LOOKUP_TABLE default
-6.16814
-6.09695
-6.07376
-6.06747
-6.06164
-6.06082
-6.05846
-6.05775
-6.05446
-6.05393
-6.05661
-6.06162
-6.06159
-6.06241
-6.03975
-6.0445
-6.04191
-6.01081
-5.95519
-5.89882
-5.86108
-5.83944
-5.83365
-5.82865
-5.81448
-5.75151
-5.757
-5.78122
-5.77682
-5.74553
-5.70579
-5.67217
-5.64443
-5.62859
-5.63282
-5.65896
-5.69212
-5.66253
-5.45348
-5.50816
-5.81047
1.50916
0
0
0
0
0
0
0
0
-0.983607
-0.938568
-0.931283
-0.934331
-0.941001
-0.945894
-0.952969
-0.957247
-0.95057
-0.94247
-0.946205
-0.958359
-0.972452
-0.977967
-0.907901
-0.917222
-0.924922
-0.904031
-0.864368
-0.828149
-0.80868
-0.800563
-0.806125
-0.812914
-0.649033
-0.552799
-0.587756
-0.624072
-0.595317
-0.567031
-0.532273
-0.510652
-0.494889
-0.496527
-0.503547
-0.523134
-0.535109
-0.658494
-0.150162
5.56483
2.94553
0.469198
0
0
0
0
0
0
0
0
-0.934746
-0.911823
-0.912364
-0.915678
-0.921221
-0.925384
-0.940118
-0.952625
-0.912271
-0.884922
-0.891772
-0.916457
-0.957386
-0.965396
-0.630641
-0.671695
-0.675647
-0.673757
-0.655416
-0.622579
-0.660771
-0.608211
-0.677388
-0.794348
-0.0843588
3.22707
3.24869
3.09141
11.2557
11.4412
10.3977
8.99695
7.06858
4.98962
5.33928
6.42141
6.407
4.42287
0.469198
0
0
0
0
0
0
0
0
0
0
0
-0.895053
-0.898057
-0.89518
-0.894758
-0.896614
-0.903979
-0.928773
-0.748154
-0.625609
-0.642455
-0.625348
-0.670492
-0.699365
-0.603868
4.54551
6.72657
8.43874
11.3
32.1076
25.7238
21.4683
16.6864
13.6281
10.8402
10.7865
8.4957
6.05141
2.40646
0
0
0
0
0
0
0
0
0
0
0
0
0
0
0
0
0
0
0
0
0
0
-0.634002
-0.643963
-0.659814
-0.62545
-0.657813
-0.622684
-0.614601
0.118454
1.55149
5.8754
6.13185
5.90587
8.75136
9.04193
43.8307
32.8547
19.5017
9.00999
0
0
0
0
0
0
0
0
0
0
0
0
0
0
0
0
0
0
0
0
0
0
0
0
0
0
0
0
0
0
0
0
6.59457
6.5438
6.49494
5.93557
5.25555
4.72016
4.54086
5.49725
6.68708
4.04255
4.68643
4.81997
12.4974
35.3186
0
0
0
0
0
0
0
0
0
0
0
0
0
0
0
0
0
0
0
0
0
0
0
0
0
0
0
0
0
0
0
0
0
0
0
0
1.47614
1.54411
2.09799
2.47435
3.77929
5.12603
6.33856
5.10183
2.09579
1.47098
2.53607
14.3387
26.3021
0
0
0
0
0
0
0
0
0
0
0
0
0
0
0
0
0
0
0
0
0
0
0
0
0
0
0
0
0
0
0
0
0
0
0
0
0
2.59543
2.54951
1.62039
1.22694
0.49828
0.777197
0.916648
3.70181
7.89906
8.9678
11.6117
27.2717
0
0
0
0
0
0
0
0
0
0
0
0
0
0
0
0
0
0
0
0
0
0
0
0
0
0
0
0
0
0
0
0
0
0
0
0
0
0
2.45787
2.59584
4.01582
4.53242
6.43299
7.47839
9.23983
7.89527
5.98596
8.49533
41.2731
0
0
0
0
0
0
0
0
0
0
0
0
0
0
0
0
0
0
0
0
0
0
0
0
0
0
0
0
0
0
0
0
0
0
0
0
0
0
0
9.36633
9.33066
8.04142
9.25902
7.69325
7.78758
9.09454
10.208
11.1703
21.7759
3.2041
0
0
0
0
0
0
0
0
0
0
0
0
0
0
0
0
0
0
0
0
0
0
0
0
0
0
0
0
0
0
0
0
0
0
0
0
0
0
0
7.92952
10.0992
10.1145
8.86149
11.2589
12.4355
10.8064
8.57914
8.60392
43.2779
0
0
0
0
0
0
0
0
0
0
0
0
0
0
0
0
0
0
0
0
0
0
0
0
0
0
0
0
0
0
0
0
0
0
0
0
0
0
0
0
13.2058
10.8439
11.0393
13.0106
10.7272
10.2862
9.48307
9.57063
8.67562
33.2233
0
0
0
0
0
0
0
0
0
0
0
0
0
0
0
0
0
0
0
0
0
0
0
0
0
0
0
0
0
0
0
0
0
0
0
0
0
0
0
0
8.71388
9.82855
9.83715
7.65861
8.9401
7.02241
6.34758
6.44313
5.90605
26.1906
0
0
0
0
0
0
0
0
0
0
0
0
0
0
0
0
0
0
0
0
0
0
0
0
0
0
0
0
0
0
0
0
0
0
0
0
0
0
0
0
7.061
5.55892
5.71513
6.83869
5.56628
5.6724
5.42452
5.43401
4.26976
17.1298
0
0
0
0
0
0
0
0
0
0
0
0
0
0
0
0
0
0
0
0
0
0
0
0
0
0
0
0
0
0
0
0
0
0
0
0
0
0
0
0
6.55202
6.55536
6.55982
5.31204
5.40986
6.30896
5.08555
5.09432
5.2091
10.3371
0
0
0
0
0
0
0
0
0
0
0
0
0
0
0
0
0
0
0
0
0
0
0
0
0
0
0
0
0
0
0
0
0
0
0
0
0
0
0
0
5.52783
5.53996
5.54196
5.54121
5.54439
4.52522
5.16545
5.22779
16.4546
0
0
0
0
0
0
0
0
0
0
0
0
0
0
0
0
0
0
0
0
0
0
0
0
0
0
0
0
0
0
0
0
0
0
0
0
0
0
0
0
0
3.60674
3.66202
3.98033
3.98143
3.98244
3.98396
3.23505
3.31189
11.5415
0
0
0
0
0
0
0
0
0
0
0
0
0
0
0
0
0
0
0
0
0
0
0
0
0
0
0
0
0
0
0
0
0
0
0
0
0
0
0
0
0
6.01719
6.36025
5.75447
5.75462
5.75506
5.75536
5.75588
5.76119
8.30564
0
0
0
0
0
0
0
0
0
0
0
0
0
0
0
0
0
0
0
0
0
0
0
0
0
0
0
0
0
0
0
0
0
0
0
0
0
0
0
0
0
3.29611
2.74112
2.74112
2.74112
2.74112
2.74112
2.74112
2.74112
2.74112
0
0
0
0
0
0
0
0
0
0
0
0
0
0
0
0
0
0
0
0
0
0
0
0
0
0
0
0
0
0
0
0
0
0
0
0
0
0
0
0
0
0
0
0
0
0
0
0
0
0
0
0
0
0
0
0
0
0
0
0
0
0
0
0
0
0
0
0
0
0
0
0
0
0
0
0
0
0
0
0
0
0
0
0
0
0
0
0
0
0
0
