# vtk DataFile Version 4.0
Nusif Fluid VTK output
ASCII
DATASET STRUCTURED_POINTS
DIMENSIONS 50 20 1
ORIGIN 0 0 0 
SPACING 0.2 0.2 1
POINT_DATA 1000 

VECTORS velocity double
0.0362967 -0.0367782  0
0.110036 -0.0365717  0
0.18482 -0.0363852  0
0.259537 -0.0363081  0
0.334112 -0.0361333  0
0.408337 -0.0357896  0
0.482288 -0.0356491  0
0.556383 -0.035846  0
0.631433 -0.0364766  0
0.708141 -0.0373522  0
0.786356 -0.0378731  0
0.864318 -0.0369544  0
0.938986 -0.0345372  0
1.00941 -0.0326753  0
1.07693 -0.0315458  0
1.14298 -0.031175  0
1.20955 -0.0320502  0
1.27935 -0.0343583  0
1.35457 -0.0374653  0
1.43348 -0.0380428  0
1.50468 -0.0297462  0
1.56283 -0.0249885  0
1.61482 -0.0235774  0
1.66642 -0.0246036  0
1.71885 -0.0243978  0
1.77203 -0.0253594  0
1.82441 -0.0235933  0
1.87544 -0.0240155  0
1.92481 -0.0219428  0
1.9724 -0.0222092  0
2.01939 -0.0213614  0
2.06598 -0.0217843  0
2.11316 -0.0219671  0
2.15989 -0.0213343  0
2.2054 -0.0207407  0
2.24838 -0.0188155  0
2.28812 -0.0175012  0
2.32501 -0.0159496  0
2.36048 -0.0160837  0
2.39835 -0.0183682  0
2.44388 -0.0237165  0
2.49942 -0.0284042  0
2.54677 -0.0155134  0
2.55748 0.00823673  0
2.5459 0.00676846  0
2.53019 0.0123947  0
2.5292 -0.00969288  0
1.26945 -0.00647249  0
0 0  0
0 0  0
0.0364564 -0.109043  0
0.110193 -0.108513  0
0.184558 -0.108131  0
0.258692 -0.107888  0
0.332658 -0.107304  0
0.405999 -0.106308  0
0.478619 -0.105743  0
0.551271 -0.106289  0
0.624908 -0.108443  0
0.700832 -0.111592  0
0.779503 -0.113992  0
0.857776 -0.11047  0
0.930126 -0.101263  0
0.99618 -0.0957219  0
1.06002 -0.0930925  0
1.12337 -0.0921965  0
1.18762 -0.0950482  0
1.25524 -0.10195  0
1.32984 -0.112842  0
1.41202 -0.116898  0
1.48248 -0.0857014  0
1.5353 -0.0731503  0
1.58552 -0.0707624  0
1.63765 -0.0743007  0
1.69155 -0.0741653  0
1.74617 -0.0765435  0
1.80009 -0.0718471  0
1.85267 -0.072516  0
1.90349 -0.0667905  0
1.95257 -0.0671469  0
2.00053 -0.0645249  0
2.04755 -0.0653572  0
2.09427 -0.0654295  0
2.14009 -0.0635747  0
2.18467 -0.0617275  0
2.22714 -0.056419  0
2.2671 -0.0527344  0
2.30455 -0.0481997  0
2.34014 -0.0480247  0
2.37586 -0.0531612  0
2.41528 -0.0670068  0
2.46375 -0.082267  0
2.5131 -0.0514947  0
2.5219 0.0298593  0
2.52206 0.00168818  0
2.53403 0.0263647  0
2.53245 -0.0193858  0
1.26623 -0.0161654  0
0 0  0
0 0  0
0.0365385 -0.179612  0
0.109776 -0.178903  0
0.183141 -0.178165  0
0.25601 -0.177628  0
0.328334 -0.176656  0
0.399682 -0.174439  0
0.470071 -0.173568  0
0.539985 -0.173869  0
0.611008 -0.178424  0
0.685558 -0.184987  0
0.766092 -0.192677  0
0.844009 -0.180994  0
0.910399 -0.162414  0
0.969546 -0.152736  0
1.02786 -0.151297  0
1.08858 -0.15112  0
1.15082 -0.155692  0
1.21535 -0.166561  0
1.28639 -0.186972  0
1.36858 -0.20025  0
1.43761 -0.13668  0
1.49433 -0.128268  0
1.54423 -0.112328  0
1.60638 -0.143587  0
1.65682 -0.10578  0
1.7183 -0.157605  0
1.77044 -0.0934088  0
1.82419 -0.15385  0
1.88034 -0.0890022  0
1.92481 -0.135035  0
1.98251 -0.0988632  0
2.02201 -0.114111  0
2.07476 -0.112717  0
2.11454 -0.0984596  0
2.15908 -0.112535  0
2.2006 -0.0861704  0
2.23884 -0.0977393  0
2.27935 -0.077744  0
2.31412 -0.0854081  0
2.35063 -0.0845631  0
2.37749 -0.0984659  0
2.39729 -0.115646  0
2.40521 -0.0719627  0
2.46633 0.00122012  0
2.54277 -0.0254828  0
2.56894 -0.00643248  0
2.55612 -0.00969288  0
1.26623 -0.00969288  0
0 0  0
0 0  0
0.0360834 -0.249091  0
0.108156 -0.248026  0
0.179614 -0.2465  0
0.250252 -0.245361  0
0.319906 -0.243685  0
0.388504 -0.240166  0
0.456062 -0.238546  0
0.522977 -0.238608  0
0.590418 -0.245046  0
0.661743 -0.25714  0
0.745741 -0.277974  0
0.810695 -0.233268  0
0.870629 -0.232999  0
0.937613 -0.204739  0
0.995017 -0.211544  0
1.05429 -0.207422  0
1.11812 -0.221996  0
1.17861 -0.221822  0
1.23143 -0.252128  0
1.26037 -0.242789  0
1.36076 -0.202119  0
1.47874 -0.0801059  0
1.55801 -0.065143  0
1.59725 -0.0938901  0
1.66935 -0.0560128  0
1.70744 -0.106421  0
1.76937 -0.0451549  0
1.82319 -0.10535  0
1.86509 -0.0441545  0
1.93636 -0.0900974  0
1.96295 -0.0556997  0
2.03556 -0.0705377  0
2.06045 -0.069255  0
2.11683 -0.0562192  0
2.15142 -0.0715478  0
2.19156 -0.0485668  0
2.23576 -0.062506  0
2.27031 -0.0454939  0
2.3184 -0.0534671  0
2.35233 -0.04977  0
2.3895 -0.0551756  0
2.3781 -0.0617827  0
2.37941 -0.0359813  0
2.46633 -0.0204025  0
2.54277 -0.0204025  0
1.27905 -0.0204025  0
0 0  0
0 0  0
0 0  0
0 0  0
0.0355796 -0.319067  0
0.104876 -0.315845  0
0.175502 -0.317071  0
0.242067 -0.308281  0
0.311266 -0.315943  0
0.375281 -0.296962  0
0.443031 -0.313422  0
0.506662 -0.290716  0
0.570146 -0.320307  0
0.627038 -0.306547  0
0.6408 -0.32283  0
0.746425 -0.287205  0
0.859889 -0.137311  0
0.922095 -0.11505  0
0.997291 -0.121794  0
1.06179 -0.117323  0
1.12365 -0.129302  0
1.18984 -0.122852  0
1.22997 -0.140533  0
1.24123 -0.121395  0
0.630184 -0.121395  0
0 0  0
0 0  0
0 0  0
0 0  0
0 0  0
0 0  0
0 0  0
0 0  0
0 0  0
0 0  0
0 0  0
0 0  0
0 0  0
0 0  0
0 0  0
0 0  0
0 0  0
0 0  0
0 0  0
0 0  0
0 0  0
0 0  0
0 0  0
0 0  0
0 0  0
0 0  0
0 0  0
0 0  0
0 0  0
0.033037 -0.177323  0
0.104543 -0.174781  0
0.169689 -0.17699  0
0.24282 -0.168968  0
0.303015 -0.177744  0
0.375888 -0.160716  0
0.437849 -0.17835  0
0.510031 -0.155535  0
0.574766 -0.181719  0
0.606734 -0.160154  0
0.642061 -0.161415  0
0.3204 -0.161415  0
0 0  0
0 0  0
0 0  0
0 0  0
0 0  0
0 0  0
0 0  0
0 0  0
0 0  0
0 0  0
0 0  0
0 0  0
0 0  0
0 0  0
0 0  0
0 0  0
0 0  0
0 0  0
0 0  0
0 0  0
0 0  0
0 0  0
0 0  0
0 0  0
0 0  0
0 0  0
0 0  0
0 0  0
0 0  0
0 0  0
0 0  0
0 0  0
0 0  0
0 0  0
0 0  0
0 0  0
0 0  0
0 0  0
0 0  0
0 0  0
0 0  0
0 0  0
0 0  0
0 0  0
0 0  0
0 0  0
0 0  0
0 0  0
0 0  0
0 0  0
0 0  0
0 0  0
0 0  0
0 0  0
0 0  0
0 0  0
0 0  0
0 0  0
0 0  0
0 0  0
0 0  0
0 0  0
0 0  0
0 0  0
0 0  0
0 0  0
0 0  0
0 0  0
0 0  0
0 0  0
0 0  0
0 0  0
0 0  0
0 0  0
0 0  0
0 0  0
0 0  0
0 0  0
0 0  0
0 0  0
0 0  0
0 0  0
0 0  0
0 0  0
0 0  0
0 0  0
0 0  0
0 0  0
0 0  0
0 0  0
0 0  0
0 0  0
0 0  0
0 0  0
0 0  0
0 0  0
0 0  0
0 0  0
0 0  0
0 0  0
0 0  0
0 0  0
0 0  0
0 0  0
0 0  0
0 0  0
0 0  0
0 0  0
0 0  0
0 0  0
0 0  0
0 0  0
0 0  0
0 0  0
0 0  0
0 0  0
0 0  0
0 0  0
0 0  0
0 0  0
0 0  0
0 0  0
0 0  0
0 0  0
0 0  0
0 0  0
0 0  0
0 0  0
0 0  0
0 0  0
0 0  0
0 0  0
0 0  0
0 0  0
0 0  0
0 0  0
0 0  0
0 0  0
0 0  0
0 0  0
0 0  0
0 0  0
0 0  0
0 0  0
0 0  0
0 0  0
0 0  0
0 0  0
0 0  0
0 0  0
0 0  0
0 0  0
0 0  0
0 0  0
0 0  0
0 0  0
0 0  0
0 0  0
0 0  0
0 0  0
0 0  0
0 0  0
0 0  0
0 0  0
0 0  0
0 0  0
0 0  0
0 0  0
0 0  0
0 0  0
0 0  0
0 0  0
0 0  0
0 0  0
0 0  0
0 0  0
0 0  0
0 0  0
0 0  0
0 0  0
0 0  0
0 0  0
0 0  0
0 0  0
0 0  0
0 0  0
0 0  0
0 0  0
0 0  0
0 0  0
0 0  0
0 0  0
0 0  0
0 0  0
0 0  0
0 0  0
0 0  0
0 0  0
0 0  0
0 0  0
0 0  0
0 0  0
0 0  0
0 0  0
0 0  0
0 0  0
0 0  0
0 0  0
0 0  0
0 0  0
0 0  0
0 0  0
0 0  0
0 0  0
0 0  0
0 0  0
0 0  0
0 0  0
0 0  0
0 0  0
0 0  0
0 0  0
0 0  0
0 0  0
0 0  0
0 0  0
0 0  0
0 0  0
0 0  0
0 0  0
0 0  0
0 0  0
0 0  0
0 0  0
0 0  0
0 0  0
0 0  0
0 0  0
0 0  0
0 0  0
0 0  0
0 0  0
0 0  0
0 0  0
0 0  0
0 0  0
0 0  0
0 0  0
0 0  0
0 0  0
0 0  0
0 0  0
0 0  0
0 0  0
0 0  0
0 0  0
0 0  0
0 0  0
0 0  0
0 0  0
0 0  0
0 0  0
0 0  0
0 0  0
0 0  0
0 0  0
0 0  0
0 0  0
0 0  0
0 0  0
0 0  0
0 0  0
0 0  0
0 0  0
0 0  0
0 0  0
0 0  0
0 0  0
0 0  0
0 0  0
0 0  0
0 0  0
0 0  0
0 0  0
0 0  0
0 0  0
0 0  0
0 0  0
0 0  0
0 0  0
0 0  0
0 0  0
0 0  0
0 0  0
0 0  0
0 0  0
0 0  0
0 0  0
0 0  0
0 0  0
0 0  0
0 0  0
0 0  0
0 0  0
0 0  0
0 0  0
0 0  0
0 0  0
0 0  0
0 0  0
0 0  0
0 0  0
0 0  0
0 0  0
0 0  0
0 0  0
0 0  0
0 0  0
0 0  0
0 0  0
0 0  0
0 0  0
0 0  0
0 0  0
0 0  0
0 0  0
0 0  0
0 0  0
0 0  0
0 0  0
0 0  0
0 0  0
0 0  0
0 0  0
0 0  0
0 0  0
0 0  0
0 0  0
0 0  0
0 0  0
0 0  0
0 0  0
0 0  0
0 0  0
0 0  0
0 0  0
0 0  0
0 0  0
0 0  0
0 0  0
0 0  0
0 0  0
0 0  0
0 0  0
0 0  0
0 0  0
0 0  0
0 0  0
0 0  0
0 0  0
0 0  0
0 0  0
0 0  0
0 0  0
0 0  0
0 0  0
0 0  0
0 0  0
0 0  0
0 0  0
0 0  0
0 0  0
0 0  0
0 0  0
0 0  0
0 0  0
0 0  0
0 0  0
0 0  0
0 0  0
0 0  0
0 0  0
0 0  0
0 0  0
0 0  0
0 0  0
0 0  0
0 0  0
0 0  0
0 0  0
0 0  0
0 0  0
0 0  0
0 0  0
0 0  0
0 0  0
0 0  0
0 0  0
0 0  0
0 0  0
0 0  0
0 0  0
0 0  0
0 0  0
0 0  0
0 0  0
0 0  0
0 0  0
0 0  0
0 0  0
0 0  0
0 0  0
0 0  0
0 0  0
0 0  0
0 0  0
0 0  0
0 0  0
0 0  0
0 0  0
0 0  0
0 0  0
0 0  0
0 0  0
0 0  0
0 0  0
0 0  0
0 0  0
0 0  0
0 0  0
0 0  0
0 0  0
0 0  0
0 0  0
0 0  0
0 0  0
0 0  0
0 0  0
0 0  0
0 0  0
0 0  0
0 0  0
0 0  0
0 0  0
0 0  0
0 0  0
0 0  0
0 0  0
0 0  0
0 0  0
0 0  0
0 0  0
0 0  0
0 0  0
0 0  0
0 0  0
0 0  0
0 0  0
0 0  0
0 0  0
0 0  0
0 0  0
0 0  0
0 0  0
0 0  0
0 0  0
0 0  0
0 0  0
0 0  0
0 0  0
0 0  0
0 0  0
0 0  0
0 0  0
0 0  0
0 0  0
0 0  0
0 0  0
0 0  0
0 0  0
0 0  0
0 0  0
0 0  0
0 0  0
0 0  0
0 0  0
0 0  0
0 0  0
0 0  0
0 0  0
0 0  0
0 0  0
0 0  0
0 0  0
0 0  0
0 0  0
0 0  0
0 0  0
0 0  0
0 0  0
0 0  0
0 0  0
0 0  0
0 0  0
0 0  0
0 0  0
0 0  0
0 0  0
0 0  0
0 0  0
0 0  0
0 0  0
0 0  0
0 0  0
0 0  0
0 0  0
0 0  0
0 0  0
0 0  0
0 0  0
0 0  0
0 0  0
0 0  0
0 0  0
0 0  0
0 0  0
0 0  0
0 0  0
0 0  0
0 0  0
0 0  0
0 0  0
0 0  0
0 0  0
0 0  0
0 0  0
0 0  0
0 0  0
0 0  0
0 0  0
0 0  0
0 0  0
0 0  0
0 0  0
0 0  0
0 0  0
0 0  0
0 0  0
0 0  0
0 0  0
0 0  0
0 0  0
0 0  0
0 0  0
0 0  0
0 0  0
0 0  0
0 0  0
0 0  0
0 0  0
0 0  0
0 0  0
0 0  0
0 0  0
0 0  0
0 0  0
0 0  0
0 0  0
0 0  0
0 0  0
0 0  0
0 0  0
0 0  0
0 0  0
0 0  0
0 0  0
0 0  0
0 0  0
0 0  0
0 0  0
0 0  0
0 0  0
0 0  0
0 0  0
0 0  0
0 0  0
0 0  0
0 0  0
0 0  0
0 0  0
0 0  0
0 0  0
0 0  0
0 0  0
0 0  0
0 0  0
0 0  0
0 0  0
0 0  0
0 0  0
0 0  0
0 0  0
0 0  0
0 0  0
0 0  0
0 0  0
0 0  0
0 0  0
0 0  0
0 0  0
0 0  0
0 0  0
0 0  0
0 0  0
0 0  0
0 0  0
0 0  0
0 0  0
0 0  0
0 0  0
0 0  0
0 0  0
0 0  0
0 0  0
0 0  0
0 0  0
0 0  0
0 0  0
0 0  0
0 0  0
0 0  0
0 0  0
0 0  0
0 0  0
0 0  0
0 0  0
0 0  0
0 0  0
0 0  0
0 0  0
0 0  0
0 0  0
0 0  0
0 0  0
0 0  0
0 0  0
0 0  0
0 0  0
0 0  0
0 0  0
0 0  0
0 0  0
0 0  0
0 0  0
0 0  0
0 0  0
0 0  0
0 0  0
0 0  0
0 0  0
0 0  0
0 0  0
0 0  0
0 0  0
0 0  0
0 0  0
0 0  0
0 0  0
0 0  0
0 0  0
0 0  0
0 0  0
0 0  0
0 0  0
0 0  0
0 0  0
0 0  0
0 0  0
0 0  0
0 0  0
0 0  0
0 0  0
0 0  0
0 0  0
0 0  0
0 0  0
0 0  0
0 0  0
0 0  0
0 0  0
0 0  0
0 0  0
0 0  0
0 0  0
0 0  0
0 0  0
0 0  0
0 0  0
0 0  0
0 0  0
0 0  0
0 0  0
0 0  0
0 0  0
0 0  0
0 0  0
0 0  0
0 0  0
0 0  0
0 0  0
0 0  0
0 0  0
0 0  0
0 0  0
0 0  0
0 0  0
0 0  0
0 0  0
0 0  0
0 0  0
0 0  0
0 0  0
0 0  0
0 0  0
0 0  0
0 0  0
0 0  0
0 0  0
0 0  0
0 0  0
0 0  0
0 0  0
0 0  0
0 0  0
0 0  0
0 0  0
0 0  0
0 0  0

SCALARS pressure double 1
LOOKUP_TABLE default
0.962802
0.96789
0.969939
0.968735
0.965213
0.95756
0.946294
0.928989
0.905269
0.873691
0.83457
0.793155
0.756478
0.727939
0.704267
0.683554
0.662379
0.636869
0.601366
0.553335
0.496421
0.459301
0.435351
0.424988
0.416323
0.415845
0.411213
0.413711
0.41075
0.41352
0.412833
0.414468
0.415489
0.415405
0.416558
0.415655
0.416194
0.41547
0.414946
0.413259
0.401529
0.373795
0.327065
0.26211
0.230625
0.150942
0
0
0
0
0.742598
0.74715
0.747339
0.747048
0.742648
0.736005
0.724693
0.708725
0.68531
0.652252
0.607921
0.556661
0.521499
0.494935
0.475259
0.457583
0.440694
0.418412
0.385692
0.330373
0.254383
0.222364
0.200765
0.201266
0.185025
0.199626
0.180854
0.199533
0.183469
0.196634
0.190331
0.193738
0.196947
0.193102
0.199621
0.194661
0.199588
0.197095
0.199615
0.199475
0.192215
0.175232
0.128754
0.0132251
0.0645866
0
0.0168227
0
0
0
0.497724
0.499298
0.501189
0.499053
0.497255
0.490541
0.483071
0.468326
0.449056
0.414046
0.359464
0.276265
0.251611
0.232402
0.220137
0.207318
0.201069
0.184704
0.164846
0.101015
-0.0535317
-0.0452628
-0.0779683
-0.0269603
-0.100689
-0.00446288
-0.110862
-0.000229247
-0.0957114
-0.0202
-0.0627657
-0.0463087
-0.0344222
-0.059051
-0.0247037
-0.0551031
-0.0273019
-0.0445144
-0.0300788
-0.0319691
-0.025697
0
-0.0102802
0
0
0
0
0
0
0
0.226332
0.227256
0.229085
0.226826
0.229085
0.220899
0.223215
0.20747
0.203208
0.168634
0.110475
-0.0912161
-0.0461579
-0.0589479
-0.056971
-0.0730439
-0.0525296
-0.0706179
-0.0387087
-0.0586346
0
0
0
0
0
0
0
0
0
0
0
0
0
0
0
0
0
0
0
0
0
0
0
0
0
0
0
0
0
0
-0.0710379
-0.072924
-0.0652416
-0.0768452
-0.0537583
-0.0848952
-0.04339
-0.090154
-0.0369124
-0.0793785
-0.022145
0
0
0
0
0
0
0
0
0
0
0
0
0
0
0
0
0
0
0
0
0
0
0
0
0
0
0
0
0
0
0
0
0
0
0
0
0
0
0
0
0
0
0
0
0
0
0
0
0
0
0
0
0
0
0
0
0
0
0
0
0
0
0
0
0
0
0
0
0
0
0
0
0
0
0
0
0
0
0
0
0
0
0
0
0
0
0
0
0
0
0
0
0
0
0
0
0
0
0
0
0
0
0
0
0
0
0
0
0
0
0
0
0
0
0
0
0
0
0
0
0
0
0
0
0
0
0
0
0
0
0
0
0
0
0
0
0
0
0
0
0
0
0
0
0
0
0
0
0
0
0
0
0
0
0
0
0
0
0
0
0
0
0
0
0
0
0
0
0
0
0
0
0
0
0
0
0
0
0
0
0
0
0
0
0
0
0
0
0
0
0
0
0
0
0
0
0
0
0
0
0
0
0
0
0
0
0
0
0
0
0
0
0
0
0
0
0
0
0
0
0
0
0
0
0
0
0
0
0
0
0
0
0
0
0
0
0
0
0
0
0
0
0
0
0
0
0
0
0
0
0
0
0
0
0
0
0
0
0
0
0
0
0
0
0
0
0
0
0
0
0
0
0
0
0
0
0
0
0
0
0
0
0
0
0
0
0
0
0
0
0
0
0
0
0
0
0
0
0
0
0
0
0
0
0
0
0
0
0
0
0
0
0
0
0
0
0
0
0
0
0
0
0
0
0
0
0
0
0
0
0
0
0
0
0
0
0
0
0
0
0
0
0
0
0
0
0
0
0
0
0
0
0
0
0
0
0
0
0
0
0
0
0
0
0
0
0
0
0
0
0
0
0
0
0
0
0
0
0
0
0
0
0
0
0
0
0
0
0
0
0
0
0
0
0
0
0
0
0
0
0
0
0
0
0
0
0
0
0
0
0
0
0
0
0
0
0
0
0
0
0
0
0
0
0
0
0
0
0
0
0
0
0
0
0
0
0
0
0
0
0
0
0
0
0
0
0
0
0
0
0
0
0
0
0
0
0
0
0
0
0
0
0
0
0
0
0
0
0
0
0
0
0
0
0
0
0
0
0
0
0
0
0
0
0
0
0
0
0
0
0
0
0
0
0
0
0
0
0
0
0
0
0
0
0
0
0
0
0
0
0
0
0
0
0
0
0
0
0
0
0
0
0
0
0
0
0
0
0
0
0
0
0
0
0
0
0
0
0
0
0
0
0
0
0
0
0
0
0
0
0
0
0
0
0
0
0
0
0
0
0
0
0
0
0
0
0
0
0
0
0
0
0
0
0
0
0
0
0
0
0
0
0
0
0
0
0
0
0
0
0
0
0
0
0
0
0
0
0
0
0
0
0
0
0
0
0
0
0
0
0
0
0
0
0
0
0
0
0
0
0
0
0
0
0
0
0
0
0
0
0
0
0
0
0
0
0
0
0
0
0
0
0
0
0
0
0
0
0
0
0
0
0
0
0
0
0
0
0
0
0
0
0
0
0
0
0
0
0
0
0
0
0
0
0
0
0
0
0
0
0
0
0
0
0
0
0
0
0
0
0
0
0
0
0
0
0
0
0
0
0
0
0
0
0
0
0
0
0
0
0
0
0
0
0
0
0
0
0
0
0
0
0
0
0
0
0
0
0
0
0
0
0
0
0
0
0
0
0
0
0
0
0
0
0
0
0
0
0
0
0
0
0
0
0
0
0
0
0
0
0
0
0
0
0
0
0
0
0
0
0
0
0
0
0
0
0
0
0
0
0
0
0
0
0
0
0
0
0
SCALARS rhs double 1
LOOKUP_TABLE default
-5.92707
-5.80558
-5.83611
-5.76201
-5.82983
-5.74887
-5.80074
-5.76476
-5.77352
-5.78432
-5.77401
-5.81741
-5.7109
-5.71915
-5.66658
-5.67262
-5.65842
-5.71462
-5.70969
-5.79885
-5.55802
-5.59477
-5.52662
-5.55097
-5.57899
-5.50998
-5.5815
-5.49238
-5.54247
-5.50313
-5.51134
-5.52394
-5.50119
-5.51784
-5.48067
-5.48524
-5.45129
-5.4475
-5.41901
-5.59155
-5.63471
-5.43888
-5.41207
-5.38766
-5.35317
-5.55426
-0.474891
0
0
0
-0.689293
-0.737842
-0.598681
-0.744468
-0.585881
-0.719306
-0.608078
-0.653217
-0.654579
-0.665726
-0.726733
-0.677949
-0.632679
-0.575116
-0.585813
-0.58521
-0.580188
-0.642455
-0.689487
-0.675012
-0.546309
-0.506301
-0.550232
-0.531164
-0.5888
-0.530933
-0.597393
-0.508726
-0.564466
-0.485239
-0.522652
-0.488063
-0.494605
-0.491578
-0.468679
-0.472588
-0.441295
-0.460441
-0.418865
-0.625018
-0.454251
-0.156534
-0.243427
2.86193
-0.367364
-0.0146836
-0.428804
0
0
0
-0.688481
-0.606012
-0.680496
-0.592667
-0.669324
-0.596284
-0.620711
-0.611781
-0.616732
-0.656238
-0.703102
-0.718196
-0.547193
-0.532766
-0.568478
-0.580778
-0.598915
-0.62512
-0.667564
-0.523175
2.19545
2.23838
1.63588
1.53834
2.24832
5.55976
5.58137
5.4241
13.5884
13.7739
12.7304
11.3296
9.40126
7.3223
7.67196
8.7541
8.73968
6.75555
2.80188
2.77215
2.56124
0.864338
-0.428804
0
-0.474891
0
0
0
0
0
-0.633327
-0.637779
-0.634666
-0.625534
-0.614449
-0.622676
-0.587692
-0.631726
-0.583778
-0.655734
-0.661411
-1.01651
2.11466
1.7736
6.87819
9.05926
10.7714
13.6327
34.4403
28.0565
21.0289
16.247
13.5584
10.8402
10.7865
8.4957
6.05141
2.40646
0
0
0
0
0
0
0
0
0
0
0
0
0
0
0
0
0
0
0
0
0
0
2.69762
2.67019
2.78404
2.74263
2.14061
1.67753
1.71808
2.45114
3.88417
8.20808
8.46453
8.66736
9.26158
8.97228
43.8307
32.8547
19.5017
9.00999
0
0
0
0
0
0
0
0
0
0
0
0
0
0
0
0
0
0
0
0
0
0
0
0
0
0
0
0
0
0
0
0
6.36602
6.31525
5.9657
5.40632
4.81609
4.65051
4.54086
5.49725
6.68708
4.04255
4.68643
4.81997
12.4974
35.3186
0
0
0
0
0
0
0
0
0
0
0
0
0
0
0
0
0
0
0
0
0
0
0
0
0
0
0
0
0
0
0
0
0
0
0
0
1.47614
1.54411
2.09799
2.47435
3.77929
5.12603
6.33856
5.10183
2.09579
1.47098
2.53607
14.3387
26.3021
0
0
0
0
0
0
0
0
0
0
0
0
0
0
0
0
0
0
0
0
0
0
0
0
0
0
0
0
0
0
0
0
0
0
0
0
0
2.59543
2.54951
1.62039
1.22694
0.49828
0.777197
0.916648
3.70181
7.89906
8.9678
11.6117
27.2717
0
0
0
0
0
0
0
0
0
0
0
0
0
0
0
0
0
0
0
0
0
0
0
0
0
0
0
0
0
0
0
0
0
0
0
0
0
0
2.45787
2.59584
4.01582
4.53242
6.43299
7.47839
9.23983
7.89527
5.98596
8.49533
41.2731
0
0
0
0
0
0
0
0
0
0
0
0
0
0
0
0
0
0
0
0
0
0
0
0
0
0
0
0
0
0
0
0
0
0
0
0
0
0
0
9.36633
9.33066
8.04142
9.25902
7.69325
7.78758
9.09454
10.208
11.1703
21.7759
3.2041
0
0
0
0
0
0
0
0
0
0
0
0
0
0
0
0
0
0
0
0
0
0
0
0
0
0
0
0
0
0
0
0
0
0
0
0
0
0
0
7.92952
10.0992
10.1145
8.86149
11.2589
12.4355
10.8064
8.57914
8.60392
43.2779
0
0
0
0
0
0
0
0
0
0
0
0
0
0
0
0
0
0
0
0
0
0
0
0
0
0
0
0
0
0
0
0
0
0
0
0
0
0
0
0
13.2058
10.8439
11.0393
13.0106
10.7272
10.2862
9.48307
9.57063
8.67562
33.2233
0
0
0
0
0
0
0
0
0
0
0
0
0
0
0
0
0
0
0
0
0
0
0
0
0
0
0
0
0
0
0
0
0
0
0
0
0
0
0
0
8.71388
9.82855
9.83715
7.65861
8.9401
7.02241
6.34758
6.44313
5.90605
26.1906
0
0
0
0
0
0
0
0
0
0
0
0
0
0
0
0
0
0
0
0
0
0
0
0
0
0
0
0
0
0
0
0
0
0
0
0
0
0
0
0
7.061
5.55892
5.71513
6.83869
5.56628
5.6724
5.42452
5.43401
4.26976
17.1298
0
0
0
0
0
0
0
0
0
0
0
0
0
0
0
0
0
0
0
0
0
0
0
0
0
0
0
0
0
0
0
0
0
0
0
0
0
0
0
0
6.55202
6.55536
6.55982
5.31204
5.40986
6.30896
5.08555
5.09432
5.2091
10.3371
0
0
0
0
0
0
0
0
0
0
0
0
0
0
0
0
0
0
0
0
0
0
0
0
0
0
0
0
0
0
0
0
0
0
0
0
0
0
0
0
5.52783
5.53996
5.54196
5.54121
5.54439
4.52522
5.16545
5.22779
16.4546
0
0
0
0
0
0
0
0
0
0
0
0
0
0
0
0
0
0
0
0
0
0
0
0
0
0
0
0
0
0
0
0
0
0
0
0
0
0
0
0
0
3.60674
3.66202
3.98033
3.98143
3.98244
3.98396
3.23505
3.31189
11.5415
0
0
0
0
0
0
0
0
0
0
0
0
0
0
0
0
0
0
0
0
0
0
0
0
0
0
0
0
0
0
0
0
0
0
0
0
0
0
0
0
0
6.01719
6.36025
5.75447
5.75462
5.75506
5.75536
5.75588
5.76119
8.30564
0
0
0
0
0
0
0
0
0
0
0
0
0
0
0
0
0
0
0
0
0
0
0
0
0
0
0
0
0
0
0
0
0
0
0
0
0
0
0
0
0
3.29611
2.74112
2.74112
2.74112
2.74112
2.74112
2.74112
2.74112
2.74112
0
0
0
0
0
0
0
0
0
0
0
0
0
0
0
0
0
0
0
0
0
0
0
0
0
0
0
0
0
0
0
0
0
0
0
0
0
0
0
0
0
0
0
0
0
0
0
0
0
0
0
0
0
0
0
0
0
0
0
0
0
0
0
0
0
0
0
0
0
0
0
0
0
0
0
0
0
0
0
0
0
0
0
0
0
0
0
0
0
0
0
