# vtk DataFile Version 4.0
Nusif Fluid VTK output
ASCII
DATASET STRUCTURED_POINTS
DIMENSIONS 50 20 1
ORIGIN 0 0 0 
SPACING 0.2 0.2 1
POINT_DATA 1000 

VECTORS velocity double
0.0521172 -0.0617668  0
0.157758 -0.0625945  0
0.266554 -0.0642942  0
0.379628 -0.0669233  0
0.49874 -0.0703585  0
0.625665 -0.0746014  0
0.76182 -0.0795122  0
0.908146 -0.0847072  0
1.06469 -0.0896482  0
1.23014 -0.093504  0
1.40133 -0.0952368  0
1.57296 -0.0938599  0
1.73791 -0.0884726  0
1.88813 -0.0789949  0
2.01631 -0.0663897  0
2.11824 -0.0526928  0
2.19217 -0.0383278  0
2.23979 -0.0263572  0
2.26339 -0.0142885  0
2.26426 -0.00362059  0
2.2473 0.0035564  0
2.20691 0.019811  0
2.14925 0.0208328  0
2.11991 0  0
1.05996 0  0
0 0  0
0 0  0
0 0  0
0 0  0
0 0  0
0 0  0
0 0  0
0 0  0
0 0  0
0 0  0
0 0  0
0 0  0
0 0  0
0 0  0
0 0  0
0 0  0
0 0  0
0 0  0
0 0  0
0 0  0
0 0  0
0 0  0
0 0  0
0 0  0
0 0  0
0.0512821 -0.183909  0
0.155161 -0.186402  0
0.262042 -0.191488  0
0.373212 -0.199272  0
0.490423 -0.209632  0
0.615371 -0.222438  0
0.74967 -0.237237  0
0.894392 -0.253016  0
1.04968 -0.268082  0
1.21423 -0.279803  0
1.38446 -0.284955  0
1.55457 -0.280356  0
1.71674 -0.263456  0
1.86186 -0.233618  0
1.98146 -0.193719  0
2.07272 -0.152685  0
2.13468 -0.108319  0
2.17201 -0.0753743  0
2.19145 -0.0423498  0
2.1914 -0.0104226  0
2.18242 0.00226262  0
2.17074 0.0476541  0
2.1627 0.0416656  0
2.14131 0.0208328  0
1.05996 0  0
0 0  0
0 0  0
0 0  0
0 0  0
0 0  0
0 0  0
0 0  0
0 0  0
0 0  0
0 0  0
0 0  0
0 0  0
0 0  0
0 0  0
0 0  0
0 0  0
0 0  0
0 0  0
0 0  0
0 0  0
0 0  0
0 0  0
0 0  0
0 0  0
0 0  0
0.0495816 -0.302826  0
0.149937 -0.307014  0
0.253118 -0.315421  0
0.360453 -0.328215  0
0.473716 -0.34543  0
0.594699 -0.366872  0
0.725162 -0.391814  0
0.866529 -0.418712  0
1.01929 -0.444577  0
1.18198 -0.464571  0
1.35018 -0.472686  0
1.51688 -0.463456  0
1.67318 -0.432764  0
1.80844 -0.378698  0
1.91066 -0.304412  0
1.98163 -0.238166  0
2.02056 -0.157703  0
2.0371 -0.113849  0
2.04892 -0.0691315  0
2.05142 -0.0115995  0
2.04941 -0.00258756  0
2.11307 0.0265493  0
2.16971 0.0208328  0
1.08135 0.0208328  0
0 0  0
0 0  0
0 0  0
0 0  0
0 0  0
0 0  0
0 0  0
0 0  0
0 0  0
0 0  0
0 0  0
0 0  0
0 0  0
0 0  0
0 0  0
0 0  0
0 0  0
0 0  0
0 0  0
0 0  0
0 0  0
0 0  0
0 0  0
0 0  0
0 0  0
0 0  0
0.0470441 -0.417365  0
0.142251 -0.423134  0
0.240077 -0.434689  0
0.34175 -0.452297  0
0.449 -0.476125  0
0.563761 -0.506122  0
0.688126 -0.541553  0
0.824026 -0.580394  0
0.97241 -0.618099  0
1.13143 -0.646755  0
1.29497 -0.656251  0
1.45394 -0.639554  0
1.59857 -0.591535  0
1.7176 -0.50815  0
1.79243 -0.385966  0
1.83602 -0.305098  0
1.85392 -0.17306  0
1.85433 -0.132436  0
1.85711 -0.0821403  0
1.94976 -0.0458676  0
2.04591 -0.00129378  0
1.02471 -0.00129378  0
0 0  0
0 0  0
0 0  0
0 0  0
0 0  0
0 0  0
0 0  0
0 0  0
0 0  0
0 0  0
0 0  0
0 0  0
0 0  0
0 0  0
0 0  0
0 0  0
0 0  0
0 0  0
0 0  0
0 0  0
0 0  0
0 0  0
0 0  0
0 0  0
0 0  0
0 0  0
0 0  0
0 0  0
0.0438415 -0.526076  0
0.132457 -0.533205  0
0.223316 -0.547562  0
0.317552 -0.569539  0
0.416769 -0.599536  0
0.522907 -0.637761  0
0.638354 -0.683829  0
0.765762 -0.735521  0
0.906713 -0.786313  0
1.05871 -0.823566  0
1.21244 -0.830679  0
1.35537 -0.800963  0
1.47707 -0.730405  0
1.56712 -0.612243  0
1.60876 -0.423793  0
1.61479 -0.333849  0
1.71543 -0.252272  0
1.81005 -0.0676048  0
1.83057 -0.0410702  0
0.928553 -0.0410702  0
0 0  0
0 0  0
0 0  0
0 0  0
0 0  0
0 0  0
0 0  0
0 0  0
0 0  0
0 0  0
0 0  0
0 0  0
0 0  0
0 0  0
0 0  0
0 0  0
0 0  0
0 0  0
0 0  0
0 0  0
0 0  0
0 0  0
0 0  0
0 0  0
0 0  0
0 0  0
0 0  0
0 0  0
0 0  0
0 0  0
0.0401099 -0.627697  0
0.121032 -0.635909  0
0.203697 -0.652595  0
0.289053 -0.678245  0
0.378412 -0.7135  0
0.473445 -0.759024  0
0.576595 -0.815214  0
0.691323 -0.880313  0
0.820113 -0.945233  0
0.959655 -0.990173  0
1.09564 -0.987736  0
1.21003 -0.935137  0
1.28918 -0.831005  0
1.31842 -0.656335  0
1.41862 -0.543077  0
1.5668 -0.166925  0
0.807395 -0.166925  0
0 0  0
0 0  0
0 0  0
0 0  0
0 0  0
0 0  0
0 0  0
0 0  0
0 0  0
0 0  0
0 0  0
0 0  0
0 0  0
0 0  0
0 0  0
0 0  0
0 0  0
0 0  0
0 0  0
0 0  0
0 0  0
0 0  0
0 0  0
0 0  0
0 0  0
0 0  0
0 0  0
0 0  0
0 0  0
0 0  0
0 0  0
0 0  0
0 0  0
0.0361631 -0.721504  0
0.108867 -0.730321  0
0.18272 -0.748815  0
0.258521 -0.77728  0
0.337001 -0.816358  0
0.419011 -0.867208  0
0.50646 -0.931628  0
0.603332 -1.0095  0
0.713096 -1.08856  0
0.831825 -1.13907  0
0.939575 -1.1165  0
1.01177 -1.02686  0
1.03661 -0.86871  0
1.17752 -0.762523  0
0.659208 -0.328168  0
0 0  0
0 0  0
0 0  0
0 0  0
0 0  0
0 0  0
0 0  0
0 0  0
0 0  0
0 0  0
0 0  0
0 0  0
0 0  0
0 0  0
0 0  0
0 0  0
0 0  0
0 0  0
0 0  0
0 0  0
0 0  0
0 0  0
0 0  0
0 0  0
0 0  0
0 0  0
0 0  0
0 0  0
0 0  0
0 0  0
0 0  0
0 0  0
0 0  0
0 0  0
0 0  0
0.032574 -0.807645  0
0.0974236 -0.816155  0
0.162671 -0.836105  0
0.229678 -0.866815  0
0.297984 -0.907607  0
0.366978 -0.960932  0
0.437112 -1.02946  0
0.510621 -1.116  0
0.59264 -1.20777  0
0.679429 -1.25931  0
0.745546 -1.20405  0
0.768796 -1.06018  0
0.902705 -0.964444  0
0.518307 -0.434355  0
0 0  0
0 0  0
0 0  0
0 0  0
0 0  0
0 0  0
0 0  0
0 0  0
0 0  0
0 0  0
0 0  0
0 0  0
0 0  0
0 0  0
0 0  0
0 0  0
0 0  0
0 0  0
0 0  0
0 0  0
0 0  0
0 0  0
0 0  0
0 0  0
0 0  0
0 0  0
0 0  0
0 0  0
0 0  0
0 0  0
0 0  0
0 0  0
0 0  0
0 0  0
0 0  0
0 0  0
0.0304391 -0.887918  0
0.0888676 -0.893407  0
0.146275 -0.915476  0
0.206834 -0.948971  0
0.267602 -0.988471  0
0.328885 -1.04428  0
0.383476 -1.10477  0
0.430579 -1.19521  0
0.481282 -1.2952  0
0.528396 -1.33972  0
0.548976 -1.23577  0
0.658886 -1.14797  0
0.384398 -0.530089  0
0 0  0
0 0  0
0 0  0
0 0  0
0 0  0
0 0  0
0 0  0
0 0  0
0 0  0
0 0  0
0 0  0
0 0  0
0 0  0
0 0  0
0 0  0
0 0  0
0 0  0
0 0  0
0 0  0
0 0  0
0 0  0
0 0  0
0 0  0
0 0  0
0 0  0
0 0  0
0 0  0
0 0  0
0 0  0
0 0  0
0 0  0
0 0  0
0 0  0
0 0  0
0 0  0
0 0  0
0 0  0
0.0300012 -0.965476  0
0.0849173 -0.963267  0
0.136949 -0.988975  0
0.19147 -1.02448  0
0.249413 -1.06559  0
0.312081 -1.12503  0
0.360009 -1.15197  0
0.399121 -1.25116  0
0.427337 -1.33513  0
0.432241 -1.36878  0
0.490608 -1.30228  0
0.274488 -0.617885  0
0 0  0
0 0  0
0 0  0
0 0  0
0 0  0
0 0  0
0 0  0
0 0  0
0 0  0
0 0  0
0 0  0
0 0  0
0 0  0
0 0  0
0 0  0
0 0  0
0 0  0
0 0  0
0 0  0
0 0  0
0 0  0
0 0  0
0 0  0
0 0  0
0 0  0
0 0  0
0 0  0
0 0  0
0 0  0
0 0  0
0 0  0
0 0  0
0 0  0
0 0  0
0 0  0
0 0  0
0 0  0
0 0  0
0.0242857 -1.02829  0
0.0850357 -1.03312  0
0.140504 -1.04357  0
0.194017 -1.09487  0
0.238458 -1.11454  0
0.248391 -1.16563  0
0.365452 -1.1667  0
0.485252 -0.637237  0
0.474492 -0.670016  0
0.446617 -0.684392  0
0.21612 -0.684392  0
0 0  0
0 0  0
0 0  0
0 0  0
0 0  0
0 0  0
0 0  0
0 0  0
0 0  0
0 0  0
0 0  0
0 0  0
0 0  0
0 0  0
0 0  0
0 0  0
0 0  0
0 0  0
0 0  0
0 0  0
0 0  0
0 0  0
0 0  0
0 0  0
0 0  0
0 0  0
0 0  0
0 0  0
0 0  0
0 0  0
0 0  0
0 0  0
0 0  0
0 0  0
0 0  0
0 0  0
0 0  0
0 0  0
0 0  0
0.0327897 -0.526287  0
0.0900378 -0.534791  0
0.170404 -0.531289  0
0.224964 -0.564691  0
0.256582 -0.562236  0
0.268969 -0.582814  0
0.124195 -0.582814  0
0 0  0
0 0  0
0 0  0
0 0  0
0 0  0
0 0  0
0 0  0
0 0  0
0 0  0
0 0  0
0 0  0
0 0  0
0 0  0
0 0  0
0 0  0
0 0  0
0 0  0
0 0  0
0 0  0
0 0  0
0 0  0
0 0  0
0 0  0
0 0  0
0 0  0
0 0  0
0 0  0
0 0  0
0 0  0
0 0  0
0 0  0
0 0  0
0 0  0
0 0  0
0 0  0
0 0  0
0 0  0
0 0  0
0 0  0
0 0  0
0 0  0
0 0  0
0 0  0
0 0  0
0 0  0
0 0  0
0 0  0
0 0  0
0 0  0
0 0  0
0 0  0
0 0  0
0 0  0
0 0  0
0 0  0
0 0  0
0 0  0
0 0  0
0 0  0
0 0  0
0 0  0
0 0  0
0 0  0
0 0  0
0 0  0
0 0  0
0 0  0
0 0  0
0 0  0
0 0  0
0 0  0
0 0  0
0 0  0
0 0  0
0 0  0
0 0  0
0 0  0
0 0  0
0 0  0
0 0  0
0 0  0
0 0  0
0 0  0
0 0  0
0 0  0
0 0  0
0 0  0
0 0  0
0 0  0
0 0  0
0 0  0
0 0  0
0 0  0
0 0  0
0 0  0
0 0  0
0 0  0
0 0  0
0 0  0
0 0  0
0 0  0
0 0  0
0 0  0
0 0  0
0 0  0
0 0  0
0 0  0
0 0  0
0 0  0
0 0  0
0 0  0
0 0  0
0 0  0
0 0  0
0 0  0
0 0  0
0 0  0
0 0  0
0 0  0
0 0  0
0 0  0
0 0  0
0 0  0
0 0  0
0 0  0
0 0  0
0 0  0
0 0  0
0 0  0
0 0  0
0 0  0
0 0  0
0 0  0
0 0  0
0 0  0
0 0  0
0 0  0
0 0  0
0 0  0
0 0  0
0 0  0
0 0  0
0 0  0
0 0  0
0 0  0
0 0  0
0 0  0
0 0  0
0 0  0
0 0  0
0 0  0
0 0  0
0 0  0
0 0  0
0 0  0
0 0  0
0 0  0
0 0  0
0 0  0
0 0  0
0 0  0
0 0  0
0 0  0
0 0  0
0 0  0
0 0  0
0 0  0
0 0  0
0 0  0
0 0  0
0 0  0
0 0  0
0 0  0
0 0  0
0 0  0
0 0  0
0 0  0
0 0  0
0 0  0
0 0  0
0 0  0
0 0  0
0 0  0
0 0  0
0 0  0
0 0  0
0 0  0
0 0  0
0 0  0
0 0  0
0 0  0
0 0  0
0 0  0
0 0  0
0 0  0
0 0  0
0 0  0
0 0  0
0 0  0
0 0  0
0 0  0
0 0  0
0 0  0
0 0  0
0 0  0
0 0  0
0 0  0
0 0  0
0 0  0
0 0  0
0 0  0
0 0  0
0 0  0
0 0  0
0 0  0
0 0  0
0 0  0
0 0  0
0 0  0
0 0  0
0 0  0
0 0  0
0 0  0
0 0  0
0 0  0
0 0  0
0 0  0
0 0  0
0 0  0
0 0  0
0 0  0
0 0  0
0 0  0
0 0  0
0 0  0
0 0  0
0 0  0
0 0  0
0 0  0
0 0  0
0 0  0
0 0  0
0 0  0
0 0  0
0 0  0
0 0  0
0 0  0
0 0  0
0 0  0
0 0  0
0 0  0
0 0  0
0 0  0
0 0  0
0 0  0
0 0  0
0 0  0
0 0  0
0 0  0
0 0  0
0 0  0
0 0  0
0 0  0
0 0  0
0 0  0
0 0  0
0 0  0
0 0  0
0 0  0
0 0  0
0 0  0
0 0  0
0 0  0
0 0  0
0 0  0
0 0  0
0 0  0
0 0  0
0 0  0
0 0  0
0 0  0
0 0  0
0 0  0
0 0  0
0 0  0
0 0  0
0 0  0
0 0  0
0 0  0
0 0  0
0 0  0
0 0  0
0 0  0
0 0  0
0 0  0
0 0  0
0 0  0
0 0  0
0 0  0
0 0  0
0 0  0
0 0  0
0 0  0
0 0  0
0 0  0
0 0  0
0 0  0
0 0  0
0 0  0
0 0  0
0 0  0
0 0  0
0 0  0
0 0  0
0 0  0
0 0  0
0 0  0
0 0  0
0 0  0
0 0  0
0 0  0
0 0  0
0 0  0
0 0  0
0 0  0
0 0  0
0 0  0
0 0  0
0 0  0
0 0  0
0 0  0
0 0  0
0 0  0
0 0  0
0 0  0
0 0  0
0 0  0
0 0  0
0 0  0
0 0  0
0 0  0
0 0  0
0 0  0
0 0  0
0 0  0
0 0  0
0 0  0
0 0  0
0 0  0
0 0  0
0 0  0
0 0  0
0 0  0
0 0  0
0 0  0
0 0  0
0 0  0
0 0  0
0 0  0
0 0  0
0 0  0
0 0  0
0 0  0
0 0  0
0 0  0
0 0  0
0 0  0
0 0  0
0 0  0
0 0  0
0 0  0
0 0  0
0 0  0
0 0  0
0 0  0
0 0  0
0 0  0
0 0  0
0 0  0
0 0  0
0 0  0
0 0  0
0 0  0
0 0  0
0 0  0
0 0  0
0 0  0
0 0  0
0 0  0
0 0  0
0 0  0
0 0  0
0 0  0
0 0  0
0 0  0
0 0  0
0 0  0
0 0  0
0 0  0
0 0  0
0 0  0
0 0  0
0 0  0
0 0  0
0 0  0
0 0  0
0 0  0
0 0  0
0 0  0
0 0  0
0 0  0
0 0  0
0 0  0
0 0  0
0 0  0
0 0  0
0 0  0
0 0  0
0 0  0
0 0  0
0 0  0
0 0  0
0 0  0
0 0  0
0 0  0
0 0  0
0 0  0
0 0  0
0 0  0
0 0  0
0 0  0
0 0  0
0 0  0
0 0  0
0 0  0
0 0  0
0 0  0
0 0  0
0 0  0
0 0  0
0 0  0
0 0  0
0 0  0

SCALARS pressure double 1
LOOKUP_TABLE default
3.01456
3.02069
3.01932
3.00816
2.98574
2.94842
2.89173
2.81045
2.69885
2.55201
2.36702
2.14565
1.89594
1.63202
1.37214
1.13382
0.926934
0.756118
0.613352
0.492161
0.397085
0.332752
0.359794
0.574725
0
0
0
0
0
0
0
0
0
0
0
0
0
0
0
0
0
0
0
0
0
0
0
0
0
0
2.79524
2.80014
2.79751
2.78546
2.7614
2.72229
2.6638
2.5801
2.46537
2.31422
2.12347
1.89589
1.63936
1.3701
1.10841
0.873797
0.673162
0.516618
0.383513
0.257911
0.157042
0.0182894
-0.0502136
0
0
0
0
0
0
0
0
0
0
0
0
0
0
0
0
0
0
0
0
0
0
0
0
0
0
0
2.55103
2.55431
2.55007
2.5363
2.51052
2.46936
2.40835
2.32157
2.20235
2.04412
1.84365
1.60394
1.33475
1.05405
0.787731
0.563149
0.368179
0.250521
0.144773
0.00377806
-0.0623299
0
0
0
0
0
0
0
0
0
0
0
0
0
0
0
0
0
0
0
0
0
0
0
0
0
0
0
0
0
2.28235
2.28427
2.27819
2.26228
2.23412
2.19058
2.12684
2.03665
1.91207
1.74495
1.53168
1.27578
0.989316
0.691496
0.413943
0.224132
0.00788344
-0.00813714
-0.0585102
0
0
0
0
0
0
0
0
0
0
0
0
0
0
0
0
0
0
0
0
0
0
0
0
0
0
0
0
0
0
0
1.99166
1.99187
1.98379
1.96548
1.93458
1.88809
1.82149
1.72828
1.59872
1.42256
1.19546
0.923305
0.620131
0.302766
-0.0114185
-0.0603602
0
0
0
0
0
0
0
0
0
0
0
0
0
0
0
0
0
0
0
0
0
0
0
0
0
0
0
0
0
0
0
0
0
0
1.68146
1.67999
1.66973
1.6487
1.61454
1.56448
1.49484
1.39994
1.268
1.08562
0.84795
0.566502
0.261346
-0.0329441
0
0
0
0
0
0
0
0
0
0
0
0
0
0
0
0
0
0
0
0
0
0
0
0
0
0
0
0
0
0
0
0
0
0
0
0
1.35442
1.35152
1.33938
1.31568
1.2776
1.22261
1.14884
1.05516
0.927016
0.745984
0.506539
0.229472
-0.0427462
0
0
0
0
0
0
0
0
0
0
0
0
0
0
0
0
0
0
0
0
0
0
0
0
0
0
0
0
0
0
0
0
0
0
0
0
0
1.01303
1.00928
0.996254
0.970919
0.928608
0.86607
0.782718
0.696179
0.584384
0.419849
0.193072
-0.0453137
0
0
0
0
0
0
0
0
0
0
0
0
0
0
0
0
0
0
0
0
0
0
0
0
0
0
0
0
0
0
0
0
0
0
0
0
0
0
0.658691
0.655649
0.643638
0.619963
0.574901
0.502182
0.385903
0.322186
0.250213
0.130445
-0.0474128
0
0
0
0
0
0
0
0
0
0
0
0
0
0
0
0
0
0
0
0
0
0
0
0
0
0
0
0
0
0
0
0
0
0
0
0
0
0
0
0.29035
0.292283
0.282953
0.269558
0.227791
0.158679
-0.0520238
-0.0320512
-0.0235927
-0.0644344
0
0
0
0
0
0
0
0
0
0
0
0
0
0
0
0
0
0
0
0
0
0
0
0
0
0
0
0
0
0
0
0
0
0
0
0
0
0
0
0
-0.0638239
-0.0430365
-0.0570872
-0.0352033
-0.0747581
-0.0192058
0
0
0
0
0
0
0
0
0
0
0
0
0
0
0
0
0
0
0
0
0
0
0
0
0
0
0
0
0
0
0
0
0
0
0
0
0
0
0
0
0
0
0
0
0
0
0
0
0
0
0
0
0
0
0
0
0
0
0
0
0
0
0
0
0
0
0
0
0
0
0
0
0
0
0
0
0
0
0
0
0
0
0
0
0
0
0
0
0
0
0
0
0
0
0
0
0
0
0
0
0
0
0
0
0
0
0
0
0
0
0
0
0
0
0
0
0
0
0
0
0
0
0
0
0
0
0
0
0
0
0
0
0
0
0
0
0
0
0
0
0
0
0
0
0
0
0
0
0
0
0
0
0
0
0
0
0
0
0
0
0
0
0
0
0
0
0
0
0
0
0
0
0
0
0
0
0
0
0
0
0
0
0
0
0
0
0
0
0
0
0
0
0
0
0
0
0
0
0
0
0
0
0
0
0
0
0
0
0
0
0
0
0
0
0
0
0
0
0
0
0
0
0
0
0
0
0
0
0
0
0
0
0
0
0
0
0
0
0
0
0
0
0
0
0
0
0
0
0
0
0
0
0
0
0
0
0
0
0
0
0
0
0
0
0
0
0
0
0
0
0
0
0
0
0
0
0
0
0
0
0
0
0
0
0
0
0
0
0
0
0
0
0
0
0
0
0
0
0
0
0
0
0
0
0
0
0
0
0
0
0
0
0
0
0
0
0
0
0
0
0
0
0
0
0
0
0
0
0
0
0
0
0
0
0
0
0
0
0
0
0
0
0
0
0
0
0
0
0
0
0
0
0
0
0
0
0
0
0
0
0
0
0
0
0
0
0
0
0
0
0
0
0
0
0
0
0
0
0
0
0
0
0
0
0
0
0
0
0
0
0
0
0
0
0
0
0
0
0
0
0
0
0
0
0
0
0
0
0
0
0
0
0
0
0
0
0
0
0
0
0
0
0
0
0
0
0
0
0
0
0
0
0
0
0
0
0
0
0
0
0
0
0
0
0
0
0
0
0
0
0
0
0
0
0
0
0
0
0
0
0
0
0
0
0
0
0
0
0
0
0
0
0
0
0
0
0
0
0
0
0
0
0
0
0
0
0
0
0
0
0
0
0
0
SCALARS rhs double 1
LOOKUP_TABLE default
-5.61504
-5.84184
-5.91766
-6.00259
-6.11535
-6.25729
-6.42806
-6.6201
-6.81306
-6.97354
-7.05526
-7.00747
-6.80548
-6.47014
-6.07724
-5.7251
-5.44915
-5.29094
-5.20923
-5.20454
-5.23279
-5.57711
-5.55285
2.12738
0
0
0
0
0
0
0
0
0
0
0
0
0
0
0
0
0
0
0
0
0
0
0
0
0
0
-0.645306
-0.846617
-0.902979
-0.968751
-1.05991
-1.17966
-1.326
-1.49126
-1.65896
-1.79156
-1.84066
-1.76124
-1.52612
-1.15722
-0.739084
-0.414663
-0.175804
-0.0749553
-0.0325982
0.123084
-0.429422
9.35048
4.48206
0
0
0
0
0
0
0
0
0
0
0
0
0
0
0
0
0
0
0
0
0
0
0
0
0
0
0
-0.642496
-0.822479
-0.878116
-0.941842
-1.03207
-1.1535
-1.30532
-1.47919
-1.65408
-1.77974
-1.7885
-1.63637
-1.30041
-0.802992
-0.275681
0.0365891
0.554661
0.485273
0.00735266
11.952
6.90773
0
0
0
0
0
0
0
0
0
0
0
0
0
0
0
0
0
0
0
0
0
0
0
0
0
0
0
0
0
-0.612911
-0.77141
-0.824487
-0.887194
-0.978867
-1.10238
-1.26254
-1.45156
-1.63429
-1.7374
-1.66082
-1.37315
-0.865691
-0.141221
0.910271
0.709156
18.7241
11.952
4.48206
0
0
0
0
0
0
0
0
0
0
0
0
0
0
0
0
0
0
0
0
0
0
0
0
0
0
0
0
0
0
0
-0.573468
-0.710408
-0.758366
-0.817897
-0.90763
-1.03276
-1.20153
-1.40687
-1.5933
-1.63938
-1.39696
-0.880742
-0.0843113
1.41445
20.628
11.952
0
0
0
0
0
0
0
0
0
0
0
0
0
0
0
0
0
0
0
0
0
0
0
0
0
0
0
0
0
0
0
0
0
0
-0.529624
-0.643256
-0.684702
-0.738553
-0.820508
-0.942909
-1.11636
-1.33356
-1.51131
-1.4472
-0.932482
-0.0913629
1.64866
16.69
0
0
0
0
0
0
0
0
0
0
0
0
0
0
0
0
0
0
0
0
0
0
0
0
0
0
0
0
0
0
0
0
0
0
0
0
-0.48813
-0.576238
-0.609346
-0.654543
-0.722309
-0.831147
-0.998064
-1.21116
-1.35755
-1.11674
-0.2333
1.68635
18.7241
0
0
0
0
0
0
0
0
0
0
0
0
0
0
0
0
0
0
0
0
0
0
0
0
0
0
0
0
0
0
0
0
0
0
0
0
0
-0.456523
-0.515243
-0.540938
-0.57582
-0.617646
-0.699239
-0.842722
-0.998143
-1.10074
-0.630342
1.54286
23.8321
0
0
0
0
0
0
0
0
0
0
0
0
0
0
0
0
0
0
0
0
0
0
0
0
0
0
0
0
0
0
0
0
0
0
0
0
0
0
-0.447109
-0.461191
-0.487776
-0.514601
-0.518805
-0.572959
0.296214
0.297703
0.31948
0.917398
35.1159
0
0
0
0
0
0
0
0
0
0
0
0
0
0
0
0
0
0
0
0
0
0
0
0
0
0
0
0
0
0
0
0
0
0
0
0
0
0
0
0.398715
0.429223
0.42245
0.439499
0.438445
0.609972
2.93729
5.33657
7.73071
21.7759
3.2041
0
0
0
0
0
0
0
0
0
0
0
0
0
0
0
0
0
0
0
0
0
0
0
0
0
0
0
0
0
0
0
0
0
0
0
0
0
0
0
3.0581
5.22778
5.24312
5.42192
7.81935
10.5337
10.8064
8.57914
8.60392
43.2779
0
0
0
0
0
0
0
0
0
0
0
0
0
0
0
0
0
0
0
0
0
0
0
0
0
0
0
0
0
0
0
0
0
0
0
0
0
0
0
0
13.2058
10.8439
11.0393
13.0106
10.7272
10.2862
9.48307
9.57063
8.67562
33.2233
0
0
0
0
0
0
0
0
0
0
0
0
0
0
0
0
0
0
0
0
0
0
0
0
0
0
0
0
0
0
0
0
0
0
0
0
0
0
0
0
8.71388
9.82855
9.83715
7.65861
8.9401
7.02241
6.34758
6.44313
5.90605
26.1906
0
0
0
0
0
0
0
0
0
0
0
0
0
0
0
0
0
0
0
0
0
0
0
0
0
0
0
0
0
0
0
0
0
0
0
0
0
0
0
0
7.061
5.55892
5.71513
6.83869
5.56628
5.6724
5.42452
5.43401
4.26976
17.1298
0
0
0
0
0
0
0
0
0
0
0
0
0
0
0
0
0
0
0
0
0
0
0
0
0
0
0
0
0
0
0
0
0
0
0
0
0
0
0
0
6.55202
6.55536
6.55982
5.31204
5.40986
6.30896
5.08555
5.09432
5.2091
10.3371
0
0
0
0
0
0
0
0
0
0
0
0
0
0
0
0
0
0
0
0
0
0
0
0
0
0
0
0
0
0
0
0
0
0
0
0
0
0
0
0
5.52783
5.53996
5.54196
5.54121
5.54439
4.52522
5.16545
5.22779
16.4546
0
0
0
0
0
0
0
0
0
0
0
0
0
0
0
0
0
0
0
0
0
0
0
0
0
0
0
0
0
0
0
0
0
0
0
0
0
0
0
0
0
3.60674
3.66202
3.98033
3.98143
3.98244
3.98396
3.23505
3.31189
11.5415
0
0
0
0
0
0
0
0
0
0
0
0
0
0
0
0
0
0
0
0
0
0
0
0
0
0
0
0
0
0
0
0
0
0
0
0
0
0
0
0
0
6.01719
6.36025
5.75447
5.75462
5.75506
5.75536
5.75588
5.76119
8.30564
0
0
0
0
0
0
0
0
0
0
0
0
0
0
0
0
0
0
0
0
0
0
0
0
0
0
0
0
0
0
0
0
0
0
0
0
0
0
0
0
0
3.29611
2.74112
2.74112
2.74112
2.74112
2.74112
2.74112
2.74112
2.74112
0
0
0
0
0
0
0
0
0
0
0
0
0
0
0
0
0
0
0
0
0
0
0
0
0
0
0
0
0
0
0
0
0
0
0
0
0
0
0
0
0
0
0
0
0
0
0
0
0
0
0
0
0
0
0
0
0
0
0
0
0
0
0
0
0
0
0
0
0
0
0
0
0
0
0
0
0
0
0
0
0
0
0
0
0
0
0
0
0
0
0
