# vtk DataFile Version 4.0
Nusif Fluid VTK output
ASCII
DATASET STRUCTURED_POINTS
DIMENSIONS 50 20 1
ORIGIN 0 0 0 
SPACING 0.2 0.2 1
POINT_DATA 1000 

VECTORS velocity double
0.0484213 -0.05222  0
0.145422 -0.0529565  0
0.243894 -0.0544469  0
0.345937 -0.0566534  0
0.45312 -0.0596516  0
0.566917 -0.0634291  0
0.689047 -0.0680581  0
0.821032 -0.0733821  0
0.963749 -0.0789316  0
1.11681 -0.0838602  0
1.27785 -0.0869834  0
1.44217 -0.0872176  0
1.60379 -0.0843449  0
1.75667 -0.0785095  0
1.89488 -0.0697239  0
2.01497 -0.0604437  0
2.11739 -0.0520414  0
2.2028 -0.0434807  0
2.26981 -0.0336286  0
2.31935 -0.0260222  0
2.35639 -0.0211519  0
2.38313 -0.0157162  0
2.39614 -0.00742101  0
2.3964 -0.0029678  0
2.39121 -0.00196917  0
2.37463 0.00841367  0
2.3415 0.0145835  0
2.32185 0  0
1.16092 0  0
0 0  0
0 0  0
0 0  0
0 0  0
0 0  0
0 0  0
0 0  0
0 0  0
0 0  0
0 0  0
0 0  0
0 0  0
0 0  0
0 0  0
0 0  0
0 0  0
0 0  0
0 0  0
0 0  0
0 0  0
0 0  0
0.047601 -0.156615  0
0.14308 -0.158707  0
0.240158 -0.163079  0
0.340496 -0.169504  0
0.445657 -0.178307  0
0.557359 -0.189575  0
0.677206 -0.203345  0
0.806865 -0.219306  0
0.947616 -0.236199  0
1.09938 -0.251306  0
1.25959 -0.260721  0
1.4226 -0.26085  0
1.58133 -0.25113  0
1.7297 -0.233107  0
1.86099 -0.204811  0
1.9719 -0.176554  0
2.06575 -0.152434  0
2.1453 -0.128282  0
2.20642 -0.0972223  0
2.24883 -0.0746183  0
2.28153 -0.0625561  0
2.30949 -0.0492847  0
2.3257 -0.0233382  0
2.32572 -0.00758941  0
2.3235 -0.0101917  0
2.32264 0.0138111  0
2.32059 0.0291671  0
2.32122 0.0145835  0
1.16092 0  0
0 0  0
0 0  0
0 0  0
0 0  0
0 0  0
0 0  0
0 0  0
0 0  0
0 0  0
0 0  0
0 0  0
0 0  0
0 0  0
0 0  0
0 0  0
0 0  0
0 0  0
0 0  0
0 0  0
0 0  0
0 0  0
0.0462745 -0.259579  0
0.13892 -0.26298  0
0.2329 -0.269838  0
0.329992 -0.280257  0
0.431609 -0.294488  0
0.539247 -0.312826  0
0.654484 -0.335386  0
0.779243 -0.361968  0
0.91545 -0.390777  0
1.06374 -0.41707  0
1.22134 -0.433051  0
1.38065 -0.431159  0
1.53172 -0.410898  0
1.66948 -0.379799  0
1.78585 -0.326088  0
1.87844 -0.27904  0
1.95804 -0.24373  0
2.03016 -0.208918  0
2.0832 -0.15104  0
2.11553 -0.11582  0
2.1425 -0.101295  0
2.17068 -0.0869578  0
2.19314 -0.0446102  0
2.20209 -0.0104811  0
2.20603 -0.0191478  0
2.20873 0.0107949  0
2.26466 0.019981  0
1.16029 0.0145835  0
0 0  0
0 0  0
0 0  0
0 0  0
0 0  0
0 0  0
0 0  0
0 0  0
0 0  0
0 0  0
0 0  0
0 0  0
0 0  0
0 0  0
0 0  0
0 0  0
0 0  0
0 0  0
0 0  0
0 0  0
0 0  0
0 0  0
0.0443893 -0.359363  0
0.133131 -0.363905  0
0.223002 -0.372975  0
0.315699 -0.387035  0
0.412344 -0.406218  0
0.514189 -0.430809  0
0.622513 -0.461218  0
0.739151 -0.497863  0
0.866671 -0.538936  0
1.00709 -0.577903  0
1.15776 -0.600808  0
1.30821 -0.593482  0
1.44312 -0.554886  0
1.56162 -0.512394  0
1.65519 -0.423757  0
1.72462 -0.363709  0
1.7913 -0.32563  0
1.85811 -0.286255  0
1.91439 -0.198217  0
1.95157 -0.148301  0
1.98005 -0.134412  0
2.00562 -0.11771  0
2.01655 -0.057386  0
2.115 -0.0345525  0
2.19477 -0.0109252  0
2.19241 0.00539746  0
1.10437 0.00539746  0
0 0  0
0 0  0
0 0  0
0 0  0
0 0  0
0 0  0
0 0  0
0 0  0
0 0  0
0 0  0
0 0  0
0 0  0
0 0  0
0 0  0
0 0  0
0 0  0
0 0  0
0 0  0
0 0  0
0 0  0
0 0  0
0 0  0
0 0  0
0.0421663 -0.455284  0
0.126551 -0.460619  0
0.211769 -0.47162  0
0.299291 -0.488835  0
0.390282 -0.512325  0
0.485465 -0.542065  0
0.585274 -0.578414  0
0.690329 -0.622678  0
0.802975 -0.674642  0
0.927759 -0.72773  0
1.06252 -0.756761  0
1.19439 -0.740183  0
1.30155 -0.670626  0
1.38952 -0.623464  0
1.46923 -0.501214  0
1.53697 -0.433601  0
1.60044 -0.396008  0
1.63186 -0.324276  0
1.75509 -0.272909  0
1.91532 -0.0810765  0
1.9633 -0.0745221  0
1.95979 -0.0643209  0
1.98092 -0.028693  0
1.00827 -0.028693  0
0 0  0
0 0  0
0 0  0
0 0  0
0 0  0
0 0  0
0 0  0
0 0  0
0 0  0
0 0  0
0 0  0
0 0  0
0 0  0
0 0  0
0 0  0
0 0  0
0 0  0
0 0  0
0 0  0
0 0  0
0 0  0
0 0  0
0 0  0
0 0  0
0 0  0
0 0  0
0.0401561 -0.54722  0
0.120455 -0.553125  0
0.200994 -0.56517  0
0.283333 -0.585441  0
0.368644 -0.612347  0
0.457303 -0.646259  0
0.549256 -0.686341  0
0.639813 -0.730713  0
0.730517 -0.790338  0
0.830701 -0.857367  0
0.932842 -0.884404  0
1.0278 -0.859735  0
1.10446 -0.750166  0
1.13492 -0.672545  0
1.28429 -0.60473  0
1.48223 -0.232822  0
1.52975 -0.213715  0
1.58028 -0.162138  0
0.815929 -0.162138  0
0 0  0
0 0  0
0 0  0
0 0  0
0 0  0
0 0  0
0 0  0
0 0  0
0 0  0
0 0  0
0 0  0
0 0  0
0 0  0
0 0  0
0 0  0
0 0  0
0 0  0
0 0  0
0 0  0
0 0  0
0 0  0
0 0  0
0 0  0
0 0  0
0 0  0
0 0  0
0 0  0
0 0  0
0 0  0
0 0  0
0 0  0
0.0388839 -0.636047  0
0.116746 -0.642454  0
0.193044 -0.653067  0
0.270007 -0.677218  0
0.3494 -0.705664  0
0.432153 -0.744734  0
0.520031 -0.788074  0
0.594854 -0.814753  0
0.660168 -0.882706  0
0.732826 -0.958215  0
0.779526 -0.947688  0
0.788938 -0.911016  0
0.907889 -0.84582  0
1.08088 -0.336272  0
0.56746 -0.336272  0
0 0  0
0 0  0
0 0  0
0 0  0
0 0  0
0 0  0
0 0  0
0 0  0
0 0  0
0 0  0
0 0  0
0 0  0
0 0  0
0 0  0
0 0  0
0 0  0
0 0  0
0 0  0
0 0  0
0 0  0
0 0  0
0 0  0
0 0  0
0 0  0
0 0  0
0 0  0
0 0  0
0 0  0
0 0  0
0 0  0
0 0  0
0 0  0
0 0  0
0 0  0
0 0  0
0.0387651 -0.72366  0
0.116406 -0.730553  0
0.189268 -0.734612  0
0.258771 -0.762575  0
0.331085 -0.792404  0
0.405808 -0.835858  0
0.483765 -0.883194  0
0.556698 -0.882698  0
0.611011 -0.94458  0
0.632423 -1.0006  0
0.687638 -0.978851  0
0.765896 -0.455508  0
0.394469 -0.455508  0
0 0  0
0 0  0
0 0  0
0 0  0
0 0  0
0 0  0
0 0  0
0 0  0
0 0  0
0 0  0
0 0  0
0 0  0
0 0  0
0 0  0
0 0  0
0 0  0
0 0  0
0 0  0
0 0  0
0 0  0
0 0  0
0 0  0
0 0  0
0 0  0
0 0  0
0 0  0
0 0  0
0 0  0
0 0  0
0 0  0
0 0  0
0 0  0
0 0  0
0 0  0
0 0  0
0 0  0
0 0  0
0.0412618 -0.808717  0
0.113707 -0.805742  0
0.1854 -0.814241  0
0.259872 -0.837143  0
0.316974 -0.857434  0
0.370604 -0.909383  0
0.401094 -0.928331  0
0.520543 -0.921965  0
0.653512 -0.482996  0
0.649727 -0.500301  0
0.316212 -0.500301  0
0 0  0
0 0  0
0 0  0
0 0  0
0 0  0
0 0  0
0 0  0
0 0  0
0 0  0
0 0  0
0 0  0
0 0  0
0 0  0
0 0  0
0 0  0
0 0  0
0 0  0
0 0  0
0 0  0
0 0  0
0 0  0
0 0  0
0 0  0
0 0  0
0 0  0
0 0  0
0 0  0
0 0  0
0 0  0
0 0  0
0 0  0
0 0  0
0 0  0
0 0  0
0 0  0
0 0  0
0 0  0
0 0  0
0 0  0
0.034735 -0.424989  0
0.116093 -0.418462  0
0.20249 -0.427376  0
0.272784 -0.435552  0
0.351358 -0.440287  0
0.394482 -0.469936  0
0.395323 -0.464165  0
0.200547 -0.464165  0
0 0  0
0 0  0
0 0  0
0 0  0
0 0  0
0 0  0
0 0  0
0 0  0
0 0  0
0 0  0
0 0  0
0 0  0
0 0  0
0 0  0
0 0  0
0 0  0
0 0  0
0 0  0
0 0  0
0 0  0
0 0  0
0 0  0
0 0  0
0 0  0
0 0  0
0 0  0
0 0  0
0 0  0
0 0  0
0 0  0
0 0  0
0 0  0
0 0  0
0 0  0
0 0  0
0 0  0
0 0  0
0 0  0
0 0  0
0 0  0
0 0  0
0 0  0
0 0  0
0 0  0
0 0  0
0 0  0
0 0  0
0 0  0
0 0  0
0 0  0
0 0  0
0 0  0
0 0  0
0 0  0
0 0  0
0 0  0
0 0  0
0 0  0
0 0  0
0 0  0
0 0  0
0 0  0
0 0  0
0 0  0
0 0  0
0 0  0
0 0  0
0 0  0
0 0  0
0 0  0
0 0  0
0 0  0
0 0  0
0 0  0
0 0  0
0 0  0
0 0  0
0 0  0
0 0  0
0 0  0
0 0  0
0 0  0
0 0  0
0 0  0
0 0  0
0 0  0
0 0  0
0 0  0
0 0  0
0 0  0
0 0  0
0 0  0
0 0  0
0 0  0
0 0  0
0 0  0
0 0  0
0 0  0
0 0  0
0 0  0
0 0  0
0 0  0
0 0  0
0 0  0
0 0  0
0 0  0
0 0  0
0 0  0
0 0  0
0 0  0
0 0  0
0 0  0
0 0  0
0 0  0
0 0  0
0 0  0
0 0  0
0 0  0
0 0  0
0 0  0
0 0  0
0 0  0
0 0  0
0 0  0
0 0  0
0 0  0
0 0  0
0 0  0
0 0  0
0 0  0
0 0  0
0 0  0
0 0  0
0 0  0
0 0  0
0 0  0
0 0  0
0 0  0
0 0  0
0 0  0
0 0  0
0 0  0
0 0  0
0 0  0
0 0  0
0 0  0
0 0  0
0 0  0
0 0  0
0 0  0
0 0  0
0 0  0
0 0  0
0 0  0
0 0  0
0 0  0
0 0  0
0 0  0
0 0  0
0 0  0
0 0  0
0 0  0
0 0  0
0 0  0
0 0  0
0 0  0
0 0  0
0 0  0
0 0  0
0 0  0
0 0  0
0 0  0
0 0  0
0 0  0
0 0  0
0 0  0
0 0  0
0 0  0
0 0  0
0 0  0
0 0  0
0 0  0
0 0  0
0 0  0
0 0  0
0 0  0
0 0  0
0 0  0
0 0  0
0 0  0
0 0  0
0 0  0
0 0  0
0 0  0
0 0  0
0 0  0
0 0  0
0 0  0
0 0  0
0 0  0
0 0  0
0 0  0
0 0  0
0 0  0
0 0  0
0 0  0
0 0  0
0 0  0
0 0  0
0 0  0
0 0  0
0 0  0
0 0  0
0 0  0
0 0  0
0 0  0
0 0  0
0 0  0
0 0  0
0 0  0
0 0  0
0 0  0
0 0  0
0 0  0
0 0  0
0 0  0
0 0  0
0 0  0
0 0  0
0 0  0
0 0  0
0 0  0
0 0  0
0 0  0
0 0  0
0 0  0
0 0  0
0 0  0
0 0  0
0 0  0
0 0  0
0 0  0
0 0  0
0 0  0
0 0  0
0 0  0
0 0  0
0 0  0
0 0  0
0 0  0
0 0  0
0 0  0
0 0  0
0 0  0
0 0  0
0 0  0
0 0  0
0 0  0
0 0  0
0 0  0
0 0  0
0 0  0
0 0  0
0 0  0
0 0  0
0 0  0
0 0  0
0 0  0
0 0  0
0 0  0
0 0  0
0 0  0
0 0  0
0 0  0
0 0  0
0 0  0
0 0  0
0 0  0
0 0  0
0 0  0
0 0  0
0 0  0
0 0  0
0 0  0
0 0  0
0 0  0
0 0  0
0 0  0
0 0  0
0 0  0
0 0  0
0 0  0
0 0  0
0 0  0
0 0  0
0 0  0
0 0  0
0 0  0
0 0  0
0 0  0
0 0  0
0 0  0
0 0  0
0 0  0
0 0  0
0 0  0
0 0  0
0 0  0
0 0  0
0 0  0
0 0  0
0 0  0
0 0  0
0 0  0
0 0  0
0 0  0
0 0  0
0 0  0
0 0  0
0 0  0
0 0  0
0 0  0
0 0  0
0 0  0
0 0  0
0 0  0
0 0  0
0 0  0
0 0  0
0 0  0
0 0  0
0 0  0
0 0  0
0 0  0
0 0  0
0 0  0
0 0  0
0 0  0
0 0  0
0 0  0
0 0  0
0 0  0
0 0  0
0 0  0
0 0  0
0 0  0
0 0  0
0 0  0
0 0  0
0 0  0
0 0  0
0 0  0
0 0  0
0 0  0
0 0  0
0 0  0
0 0  0
0 0  0
0 0  0
0 0  0
0 0  0
0 0  0
0 0  0
0 0  0
0 0  0
0 0  0
0 0  0
0 0  0
0 0  0
0 0  0
0 0  0
0 0  0
0 0  0
0 0  0
0 0  0
0 0  0
0 0  0
0 0  0
0 0  0
0 0  0
0 0  0
0 0  0
0 0  0
0 0  0
0 0  0
0 0  0
0 0  0
0 0  0
0 0  0
0 0  0
0 0  0
0 0  0
0 0  0
0 0  0
0 0  0
0 0  0
0 0  0
0 0  0
0 0  0
0 0  0
0 0  0
0 0  0
0 0  0
0 0  0
0 0  0
0 0  0
0 0  0
0 0  0
0 0  0
0 0  0
0 0  0
0 0  0
0 0  0
0 0  0
0 0  0
0 0  0
0 0  0
0 0  0
0 0  0
0 0  0
0 0  0
0 0  0
0 0  0
0 0  0
0 0  0
0 0  0
0 0  0
0 0  0
0 0  0
0 0  0
0 0  0
0 0  0
0 0  0
0 0  0
0 0  0
0 0  0
0 0  0
0 0  0
0 0  0
0 0  0
0 0  0
0 0  0
0 0  0
0 0  0
0 0  0
0 0  0
0 0  0
0 0  0
0 0  0
0 0  0
0 0  0
0 0  0
0 0  0
0 0  0
0 0  0
0 0  0
0 0  0
0 0  0
0 0  0
0 0  0
0 0  0
0 0  0
0 0  0
0 0  0
0 0  0
0 0  0
0 0  0
0 0  0
0 0  0
0 0  0
0 0  0
0 0  0
0 0  0
0 0  0
0 0  0
0 0  0
0 0  0
0 0  0
0 0  0
0 0  0
0 0  0
0 0  0
0 0  0
0 0  0
0 0  0
0 0  0
0 0  0
0 0  0
0 0  0
0 0  0
0 0  0
0 0  0
0 0  0
0 0  0
0 0  0
0 0  0
0 0  0
0 0  0
0 0  0
0 0  0
0 0  0
0 0  0
0 0  0
0 0  0
0 0  0
0 0  0
0 0  0
0 0  0
0 0  0
0 0  0
0 0  0
0 0  0
0 0  0
0 0  0
0 0  0
0 0  0
0 0  0
0 0  0
0 0  0
0 0  0
0 0  0
0 0  0
0 0  0
0 0  0
0 0  0
0 0  0
0 0  0
0 0  0
0 0  0
0 0  0
0 0  0
0 0  0
0 0  0
0 0  0
0 0  0
0 0  0
0 0  0
0 0  0
0 0  0
0 0  0
0 0  0
0 0  0

SCALARS pressure double 1
LOOKUP_TABLE default
2.38901
2.38073
2.36841
2.35443
2.3348
2.30662
2.26836
2.21775
2.15052
2.06188
1.94836
1.80989
1.65141
1.48193
1.31294
1.15597
1.01581
0.891275
0.784624
0.699275
0.629703
0.564632
0.497847
0.43083
0.364685
0.279327
0.160863
-0.0286131
0
0
0
0
0
0
0
0
0
0
0
0
0
0
0
0
0
0
0
0
0
0
2.15134
2.14425
2.13557
2.12027
2.09797
2.06831
2.02895
1.97612
1.90607
1.81448
1.69734
1.55421
1.39178
1.21972
1.05158
0.901571
0.770328
0.651465
0.548375
0.473841
0.415407
0.359198
0.292218
0.223489
0.176955
0.108481
0.0132772
0
0
0
0
0
0
0
0
0
0
0
0
0
0
0
0
0
0
0
0
0
0
0
1.89068
1.8865
1.87501
1.85747
1.83444
1.80284
1.76005
1.70348
1.62924
1.53182
1.40682
1.25467
1.08303
0.906261
0.736981
0.603833
0.492786
0.384914
0.278046
0.224644
0.195409
0.161569
0.091364
-0.00656214
0
-0.0263834
0
0
0
0
0
0
0
0
0
0
0
0
0
0
0
0
0
0
0
0
0
0
0
0
1.60965
1.60216
1.59078
1.57311
1.54768
1.51259
1.46489
1.4023
1.32172
1.21662
1.0806
0.916171
0.7315
0.549489
0.36825
0.273036
0.204744
0.115718
-0.0321108
-0.0419807
-0.0158998
0
-0.0616139
0
0
0
0
0
0
0
0
0
0
0
0
0
0
0
0
0
0
0
0
0
0
0
0
0
0
0
1.30527
1.29826
1.2867
1.26881
1.24156
1.20224
1.14763
1.07626
0.988243
0.874187
0.724238
0.550322
0.34799
0.177669
-0.0659975
-0.0709481
-0.0512658
-0.0798862
0
0
0
0
0
0
0
0
0
0
0
0
0
0
0
0
0
0
0
0
0
0
0
0
0
0
0
0
0
0
0
0
0.981092
0.975992
0.965638
0.948321
0.92041
0.877796
0.814042
0.728818
0.636299
0.515253
0.343067
0.187062
-0.0539678
-0.0936316
0
0
0
0
0
0
0
0
0
0
0
0
0
0
0
0
0
0
0
0
0
0
0
0
0
0
0
0
0
0
0
0
0
0
0
0
0.639849
0.636265
0.62944
0.615394
0.589694
0.548338
0.473256
0.358224
0.277093
0.165268
-0.0645824
-0.0658027
0
0
0
0
0
0
0
0
0
0
0
0
0
0
0
0
0
0
0
0
0
0
0
0
0
0
0
0
0
0
0
0
0
0
0
0
0
0
0.281114
0.279112
0.280707
0.273117
0.253057
0.228958
0.147107
-0.0497213
-0.0573361
-0.0730652
0
0
0
0
0
0
0
0
0
0
0
0
0
0
0
0
0
0
0
0
0
0
0
0
0
0
0
0
0
0
0
0
0
0
0
0
0
0
0
0
-0.0779152
-0.0845722
-0.0583948
-0.0571416
-0.0810329
-0.03373
-0.0638321
0
0
0
0
0
0
0
0
0
0
0
0
0
0
0
0
0
0
0
0
0
0
0
0
0
0
0
0
0
0
0
0
0
0
0
0
0
0
0
0
0
0
0
0
0
0
0
0
0
0
0
0
0
0
0
0
0
0
0
0
0
0
0
0
0
0
0
0
0
0
0
0
0
0
0
0
0
0
0
0
0
0
0
0
0
0
0
0
0
0
0
0
0
0
0
0
0
0
0
0
0
0
0
0
0
0
0
0
0
0
0
0
0
0
0
0
0
0
0
0
0
0
0
0
0
0
0
0
0
0
0
0
0
0
0
0
0
0
0
0
0
0
0
0
0
0
0
0
0
0
0
0
0
0
0
0
0
0
0
0
0
0
0
0
0
0
0
0
0
0
0
0
0
0
0
0
0
0
0
0
0
0
0
0
0
0
0
0
0
0
0
0
0
0
0
0
0
0
0
0
0
0
0
0
0
0
0
0
0
0
0
0
0
0
0
0
0
0
0
0
0
0
0
0
0
0
0
0
0
0
0
0
0
0
0
0
0
0
0
0
0
0
0
0
0
0
0
0
0
0
0
0
0
0
0
0
0
0
0
0
0
0
0
0
0
0
0
0
0
0
0
0
0
0
0
0
0
0
0
0
0
0
0
0
0
0
0
0
0
0
0
0
0
0
0
0
0
0
0
0
0
0
0
0
0
0
0
0
0
0
0
0
0
0
0
0
0
0
0
0
0
0
0
0
0
0
0
0
0
0
0
0
0
0
0
0
0
0
0
0
0
0
0
0
0
0
0
0
0
0
0
0
0
0
0
0
0
0
0
0
0
0
0
0
0
0
0
0
0
0
0
0
0
0
0
0
0
0
0
0
0
0
0
0
0
0
0
0
0
0
0
0
0
0
0
0
0
0
0
0
0
0
0
0
0
0
0
0
0
0
0
0
0
0
0
0
0
0
0
0
0
0
0
0
0
0
0
0
0
0
0
0
0
0
0
0
0
0
0
0
0
0
0
0
0
0
0
0
0
0
0
0
0
0
0
0
0
0
0
0
0
0
0
0
0
0
0
0
0
0
0
0
0
0
0
0
0
0
0
0
0
0
0
0
0
0
0
0
0
0
0
0
0
0
0
0
0
0
0
0
0
0
0
0
0
0
0
0
0
0
0
0
0
0
0
0
0
0
0
0
0
0
0
0
0
0
0
0
0
0
0
0
0
0
0
0
0
0
0
0
0
0
0
0
0
0
0
0
0
0
0
0
0
0
0
0
0
0
0
0
0
0
0
0
0
0
0
0
0
0
0
0
0
0
0
0
0
0
0
0
0
0
0
0
0
0
0
0
0
0
0
0
0
SCALARS rhs double 1
LOOKUP_TABLE default
-5.83172
-5.84117
-5.73436
-5.85437
-6.023
-6.10934
-6.20083
-6.37995
-6.58873
-6.76319
-6.86234
-6.86533
-6.74507
-6.52489
-6.22491
-5.93344
-5.73659
-5.55188
-5.36341
-5.24507
-5.24313
-5.17773
-5.14636
-5.16121
-5.17401
-5.0989
-5.46502
2.70435
0
0
0
0
0
0
0
0
0
0
0
0
0
0
0
0
0
0
0
0
0
0
-0.62883
-0.534037
-0.838429
-0.889415
-0.829484
-0.91517
-1.07189
-1.20287
-1.35016
-1.52383
-1.63378
-1.59066
-1.4539
-1.20487
-0.865036
-0.624242
-0.490088
-0.274089
-0.145204
-0.186093
-0.0890074
-0.0755293
0.0758476
-0.013319
-0.278604
0.231387
4.32486
0
0
0
0
0
0
0
0
0
0
0
0
0
0
0
0
0
0
0
0
0
0
0
-0.475802
-0.858435
-0.7172
-0.678673
-0.788869
-0.891183
-1.0038
-1.16276
-1.34476
-1.50393
-1.57705
-1.46144
-1.20384
-0.89937
-0.449861
-0.276743
-0.187696
-0.0378397
0.337374
0.166629
0.102792
-0.00728679
0.502909
9.10674
4.32486
1.26649
0
0
0
0
0
0
0
0
0
0
0
0
0
0
0
0
0
0
0
0
0
0
0
0
-0.656124
-0.592373
-0.648788
-0.686356
-0.731096
-0.817771
-0.927854
-1.07475
-1.26813
-1.45402
-1.47206
-1.1879
-0.745332
-0.349375
0.493945
0.351692
0.274393
0.369863
19.746
13.3622
9.10674
4.32486
1.26649
0
0
0
0
0
0
0
0
0
0
0
0
0
0
0
0
0
0
0
0
0
0
0
0
0
0
0
-0.593836
-0.56951
-0.585958
-0.636804
-0.682238
-0.741833
-0.830439
-0.954646
-1.12197
-1.31244
-1.23006
-0.645829
0.325098
0.678049
35.892
27.216
15.264
7.68606
0
0
0
0
0
0
0
0
0
0
0
0
0
0
0
0
0
0
0
0
0
0
0
0
0
0
0
0
0
0
0
0
-0.500855
-0.574587
-0.554607
-0.580136
-0.61549
-0.660666
-0.722645
-0.769815
-0.902373
-1.06061
-0.267147
0.629737
9.13272
31.9539
0
0
0
0
0
0
0
0
0
0
0
0
0
0
0
0
0
0
0
0
0
0
0
0
0
0
0
0
0
0
0
0
0
0
0
0
-0.493879
-0.528882
-0.503932
-0.535593
-0.54731
-0.59699
-0.642511
-0.0946958
-0.154481
-0.167302
1.7219
13.2328
26.3021
0
0
0
0
0
0
0
0
0
0
0
0
0
0
0
0
0
0
0
0
0
0
0
0
0
0
0
0
0
0
0
0
0
0
0
0
0
-0.0483878
-0.0894774
-0.00532486
-0.0174653
-0.043711
-0.0377025
-0.00370338
2.88763
6.39021
8.02617
11.6117
27.2717
0
0
0
0
0
0
0
0
0
0
0
0
0
0
0
0
0
0
0
0
0
0
0
0
0
0
0
0
0
0
0
0
0
0
0
0
0
0
1.35202
1.48999
2.90997
3.02358
4.75165
6.53676
9.23983
7.89527
5.98596
8.49533
41.2731
0
0
0
0
0
0
0
0
0
0
0
0
0
0
0
0
0
0
0
0
0
0
0
0
0
0
0
0
0
0
0
0
0
0
0
0
0
0
0
9.36633
9.33066
8.04142
9.25902
7.69325
7.78758
9.09454
10.208
11.1703
21.7759
3.2041
0
0
0
0
0
0
0
0
0
0
0
0
0
0
0
0
0
0
0
0
0
0
0
0
0
0
0
0
0
0
0
0
0
0
0
0
0
0
0
7.92952
10.0992
10.1145
8.86149
11.2589
12.4355
10.8064
8.57914
8.60392
43.2779
0
0
0
0
0
0
0
0
0
0
0
0
0
0
0
0
0
0
0
0
0
0
0
0
0
0
0
0
0
0
0
0
0
0
0
0
0
0
0
0
13.2058
10.8439
11.0393
13.0106
10.7272
10.2862
9.48307
9.57063
8.67562
33.2233
0
0
0
0
0
0
0
0
0
0
0
0
0
0
0
0
0
0
0
0
0
0
0
0
0
0
0
0
0
0
0
0
0
0
0
0
0
0
0
0
8.71388
9.82855
9.83715
7.65861
8.9401
7.02241
6.34758
6.44313
5.90605
26.1906
0
0
0
0
0
0
0
0
0
0
0
0
0
0
0
0
0
0
0
0
0
0
0
0
0
0
0
0
0
0
0
0
0
0
0
0
0
0
0
0
7.061
5.55892
5.71513
6.83869
5.56628
5.6724
5.42452
5.43401
4.26976
17.1298
0
0
0
0
0
0
0
0
0
0
0
0
0
0
0
0
0
0
0
0
0
0
0
0
0
0
0
0
0
0
0
0
0
0
0
0
0
0
0
0
6.55202
6.55536
6.55982
5.31204
5.40986
6.30896
5.08555
5.09432
5.2091
10.3371
0
0
0
0
0
0
0
0
0
0
0
0
0
0
0
0
0
0
0
0
0
0
0
0
0
0
0
0
0
0
0
0
0
0
0
0
0
0
0
0
5.52783
5.53996
5.54196
5.54121
5.54439
4.52522
5.16545
5.22779
16.4546
0
0
0
0
0
0
0
0
0
0
0
0
0
0
0
0
0
0
0
0
0
0
0
0
0
0
0
0
0
0
0
0
0
0
0
0
0
0
0
0
0
3.60674
3.66202
3.98033
3.98143
3.98244
3.98396
3.23505
3.31189
11.5415
0
0
0
0
0
0
0
0
0
0
0
0
0
0
0
0
0
0
0
0
0
0
0
0
0
0
0
0
0
0
0
0
0
0
0
0
0
0
0
0
0
6.01719
6.36025
5.75447
5.75462
5.75506
5.75536
5.75588
5.76119
8.30564
0
0
0
0
0
0
0
0
0
0
0
0
0
0
0
0
0
0
0
0
0
0
0
0
0
0
0
0
0
0
0
0
0
0
0
0
0
0
0
0
0
3.29611
2.74112
2.74112
2.74112
2.74112
2.74112
2.74112
2.74112
2.74112
0
0
0
0
0
0
0
0
0
0
0
0
0
0
0
0
0
0
0
0
0
0
0
0
0
0
0
0
0
0
0
0
0
0
0
0
0
0
0
0
0
0
0
0
0
0
0
0
0
0
0
0
0
0
0
0
0
0
0
0
0
0
0
0
0
0
0
0
0
0
0
0
0
0
0
0
0
0
0
0
0
0
0
0
0
0
0
0
0
0
0
