# vtk DataFile Version 4.0
Nusif Fluid VTK output
ASCII
DATASET STRUCTURED_POINTS
DIMENSIONS 50 20 1
ORIGIN 0 0 0 
SPACING 0.2 0.2 1
POINT_DATA 1000 

VECTORS velocity double
0.0474416 -0.0491426  0
0.14254 -0.0503903  0
0.239144 -0.0518999  0
0.340251 -0.0526419  0
0.445587 -0.0562876  0
0.55592 -0.0595678  0
0.67474 -0.0636651  0
0.802951 -0.0687436  0
0.941319 -0.074194  0
1.09004 -0.0791453  0
1.24724 -0.0825236  0
1.40837 -0.0830964  0
1.56733 -0.0804406  0
1.7182 -0.0750646  0
1.85562 -0.0669641  0
1.97641 -0.0584579  0
2.08094 -0.0507588  0
2.17012 -0.043146  0
2.24249 -0.0337462  0
2.29781 -0.0261903  0
2.34057 -0.0213242  0
2.37539 -0.018023  0
2.4011 -0.0123448  0
2.41231 -0.00361572  0
2.41279 -0.00142743  0
2.41009 -0.00047559  0
2.39543 0.0105029  0
2.3627 0.0175865  0
2.34279 0  0
1.1714 0  0
0 0  0
0 0  0
0 0  0
0 0  0
0 0  0
0 0  0
0 0  0
0 0  0
0 0  0
0 0  0
0 0  0
0 0  0
0 0  0
0 0  0
0 0  0
0 0  0
0 0  0
0 0  0
0 0  0
0 0  0
0.0462073 -0.148028  0
0.139848 -0.150214  0
0.236886 -0.153401  0
0.335584 -0.158973  0
0.438116 -0.167354  0
0.547666 -0.177495  0
0.663922 -0.18997  0
0.789392 -0.205001  0
0.925593 -0.221496  0
1.07264 -0.236814  0
1.22858 -0.247175  0
1.38828 -0.248443  0
1.54433 -0.239283  0
1.69045 -0.222457  0
1.82059 -0.19642  0
1.93224 -0.170753  0
2.02881 -0.148955  0
2.11297 -0.127491  0
2.17994 -0.0979799  0
2.22853 -0.0751096  0
2.26621 -0.0622063  0
2.29976 -0.0548231  0
2.32951 -0.0401235  0
2.34311 -0.0100103  0
2.34253 -0.00422149  0
2.34466 -0.00639482  0
2.34671 0.0197586  0
2.34564 0.035173  0
2.34422 0.0175865  0
1.1714 0  0
0 0  0
0 0  0
0 0  0
0 0  0
0 0  0
0 0  0
0 0  0
0 0  0
0 0  0
0 0  0
0 0  0
0 0  0
0 0  0
0 0  0
0 0  0
0 0  0
0 0  0
0 0  0
0 0  0
0 0  0
0.0453579 -0.245193  0
0.137294 -0.24768  0
0.230305 -0.253277  0
0.325854 -0.263484  0
0.42607 -0.275731  0
0.531285 -0.292167  0
0.643167 -0.312694  0
0.763454 -0.337456  0
0.894345 -0.365222  0
1.03694 -0.391841  0
1.18933 -0.409793  0
1.34505 -0.410626  0
1.49371 -0.391136  0
1.62915 -0.361419  0
1.74376 -0.311515  0
1.83676 -0.269619  0
1.91989 -0.239148  0
1.99864 -0.209283  0
2.0591 -0.153049  0
2.09794 -0.116789  0
2.12998 -0.0993192  0
2.16292 -0.0937117  0
2.19875 -0.0759939  0
2.22208 -0.0179223  0
2.22764 -0.00601759  0
2.23028 -0.0140482  0
2.23249 0.0185115  0
2.28907 0.0268422  0
1.17282 0.0175865  0
0 0  0
0 0  0
0 0  0
0 0  0
0 0  0
0 0  0
0 0  0
0 0  0
0 0  0
0 0  0
0 0  0
0 0  0
0 0  0
0 0  0
0 0  0
0 0  0
0 0  0
0 0  0
0 0  0
0 0  0
0 0  0
0.0439553 -0.338628  0
0.132288 -0.342405  0
0.221707 -0.351217  0
0.313789 -0.363503  0
0.409696 -0.380492  0
0.509659 -0.401935  0
0.614794 -0.429141  0
0.726845 -0.462746  0
0.848349 -0.501649  0
0.98136 -0.540188  0
1.12441 -0.566156  0
1.27034 -0.565316  0
1.40417 -0.528321  0
1.52215 -0.486932  0
1.61443 -0.402168  0
1.68358 -0.350409  0
1.75382 -0.320989  0
1.82905 -0.290634  0
1.89321 -0.203359  0
1.9379 -0.154706  0
1.97801 -0.138015  0
2.01318 -0.127852  0
2.02721 -0.0964304  0
2.11891 -0.059743  0
2.22425 -0.00322353  0
2.2178 -0.00812894  0
2.21511 0.00925573  0
1.11625 0.00925573  0
0 0  0
0 0  0
0 0  0
0 0  0
0 0  0
0 0  0
0 0  0
0 0  0
0 0  0
0 0  0
0 0  0
0 0  0
0 0  0
0 0  0
0 0  0
0 0  0
0 0  0
0 0  0
0 0  0
0 0  0
0 0  0
0 0  0
0.042243 -0.42898  0
0.126645 -0.434069  0
0.212319 -0.444351  0
0.300645 -0.459996  0
0.391983 -0.480342  0
0.486188 -0.505365  0
0.583173 -0.537154  0
0.683741 -0.576685  0
0.79097 -0.625763  0
0.907013 -0.67448  0
1.02925 -0.706531  0
1.15394 -0.704885  0
1.26239 -0.640335  0
1.35499 -0.59481  0
1.43731 -0.475858  0
1.50522 -0.41844  0
1.57008 -0.392673  0
1.60268 -0.331392  0
1.7331 -0.28024  0
1.90294 -0.0868362  0
1.96211 -0.0795775  0
1.98182 -0.0709399  0
2.00448 -0.0482152  0
1.0136 -0.0482152  0
0 0  0
0 0  0
0 0  0
0 0  0
0 0  0
0 0  0
0 0  0
0 0  0
0 0  0
0 0  0
0 0  0
0 0  0
0 0  0
0 0  0
0 0  0
0 0  0
0 0  0
0 0  0
0 0  0
0 0  0
0 0  0
0 0  0
0 0  0
0 0  0
0 0  0
0 0  0
0.0405273 -0.516082  0
0.121771 -0.52229  0
0.20383 -0.533387  0
0.28842 -0.55283  0
0.376374 -0.57605  0
0.465046 -0.601557  0
0.552374 -0.634499  0
0.63916 -0.676059  0
0.730421 -0.734275  0
0.819908 -0.780887  0
0.905345 -0.81711  0
0.993257 -0.816149  0
1.06641 -0.717645  0
1.09544 -0.643809  0
1.2538 -0.577654  0
1.4621 -0.225354  0
1.51042 -0.212635  0
1.55574 -0.165696  0
0.80134 -0.165696  0
0 0  0
0 0  0
0 0  0
0 0  0
0 0  0
0 0  0
0 0  0
0 0  0
0 0  0
0 0  0
0 0  0
0 0  0
0 0  0
0 0  0
0 0  0
0 0  0
0 0  0
0 0  0
0 0  0
0 0  0
0 0  0
0 0  0
0 0  0
0 0  0
0 0  0
0 0  0
0 0  0
0 0  0
0 0  0
0 0  0
0 0  0
0.0393725 -0.600658  0
0.118229 -0.607202  0
0.197031 -0.618644  0
0.278334 -0.642629  0
0.365509 -0.670564  0
0.44746 -0.686862  0
0.520119 -0.718443  0
0.594689 -0.762893  0
0.675958 -0.8294  0
0.732155 -0.838446  0
0.775812 -0.893242  0
0.805867 -0.862602  0
0.899222 -0.804638  0
1.04401 -0.321905  0
0.547721 -0.321905  0
0 0  0
0 0  0
0 0  0
0 0  0
0 0  0
0 0  0
0 0  0
0 0  0
0 0  0
0 0  0
0 0  0
0 0  0
0 0  0
0 0  0
0 0  0
0 0  0
0 0  0
0 0  0
0 0  0
0 0  0
0 0  0
0 0  0
0 0  0
0 0  0
0 0  0
0 0  0
0 0  0
0 0  0
0 0  0
0 0  0
0 0  0
0 0  0
0 0  0
0 0  0
0 0  0
0.0383635 -0.6832  0
0.11502 -0.689429  0
0.190849 -0.700197  0
0.268657 -0.729471  0
0.355891 -0.767354  0
0.422202 -0.745302  0
0.486935 -0.802074  0
0.552172 -0.823796  0
0.572026 -0.874316  0
0.694517 -0.863181  0
0.781089 -0.461649  0
0.775519 -0.431301  0
0.402934 -0.431301  0
0 0  0
0 0  0
0 0  0
0 0  0
0 0  0
0 0  0
0 0  0
0 0  0
0 0  0
0 0  0
0 0  0
0 0  0
0 0  0
0 0  0
0 0  0
0 0  0
0 0  0
0 0  0
0 0  0
0 0  0
0 0  0
0 0  0
0 0  0
0 0  0
0 0  0
0 0  0
0 0  0
0 0  0
0 0  0
0 0  0
0 0  0
0 0  0
0 0  0
0 0  0
0 0  0
0 0  0
0 0  0
0.0386998 -0.762628  0
0.111869 -0.764462  0
0.184791 -0.778513  0
0.244023 -0.792831  0
0.264802 -0.816647  0
0.39458 -0.79065  0
0.526434 -0.423728  0
0.565601 -0.421825  0
0.587359 -0.437158  0
0.286013 -0.437158  0
0 0  0
0 0  0
0 0  0
0 0  0
0 0  0
0 0  0
0 0  0
0 0  0
0 0  0
0 0  0
0 0  0
0 0  0
0 0  0
0 0  0
0 0  0
0 0  0
0 0  0
0 0  0
0 0  0
0 0  0
0 0  0
0 0  0
0 0  0
0 0  0
0 0  0
0 0  0
0 0  0
0 0  0
0 0  0
0 0  0
0 0  0
0 0  0
0 0  0
0 0  0
0 0  0
0 0  0
0 0  0
0 0  0
0 0  0
0 0  0
0.037502 -0.400664  0
0.119689 -0.399466  0
0.192131 -0.408483  0
0.243864 -0.406805  0
0.266321 -0.408324  0
0.132401 -0.408324  0
0 0  0
0 0  0
0 0  0
0 0  0
0 0  0
0 0  0
0 0  0
0 0  0
0 0  0
0 0  0
0 0  0
0 0  0
0 0  0
0 0  0
0 0  0
0 0  0
0 0  0
0 0  0
0 0  0
0 0  0
0 0  0
0 0  0
0 0  0
0 0  0
0 0  0
0 0  0
0 0  0
0 0  0
0 0  0
0 0  0
0 0  0
0 0  0
0 0  0
0 0  0
0 0  0
0 0  0
0 0  0
0 0  0
0 0  0
0 0  0
0 0  0
0 0  0
0 0  0
0 0  0
0 0  0
0 0  0
0 0  0
0 0  0
0 0  0
0 0  0
0 0  0
0 0  0
0 0  0
0 0  0
0 0  0
0 0  0
0 0  0
0 0  0
0 0  0
0 0  0
0 0  0
0 0  0
0 0  0
0 0  0
0 0  0
0 0  0
0 0  0
0 0  0
0 0  0
0 0  0
0 0  0
0 0  0
0 0  0
0 0  0
0 0  0
0 0  0
0 0  0
0 0  0
0 0  0
0 0  0
0 0  0
0 0  0
0 0  0
0 0  0
0 0  0
0 0  0
0 0  0
0 0  0
0 0  0
0 0  0
0 0  0
0 0  0
0 0  0
0 0  0
0 0  0
0 0  0
0 0  0
0 0  0
0 0  0
0 0  0
0 0  0
0 0  0
0 0  0
0 0  0
0 0  0
0 0  0
0 0  0
0 0  0
0 0  0
0 0  0
0 0  0
0 0  0
0 0  0
0 0  0
0 0  0
0 0  0
0 0  0
0 0  0
0 0  0
0 0  0
0 0  0
0 0  0
0 0  0
0 0  0
0 0  0
0 0  0
0 0  0
0 0  0
0 0  0
0 0  0
0 0  0
0 0  0
0 0  0
0 0  0
0 0  0
0 0  0
0 0  0
0 0  0
0 0  0
0 0  0
0 0  0
0 0  0
0 0  0
0 0  0
0 0  0
0 0  0
0 0  0
0 0  0
0 0  0
0 0  0
0 0  0
0 0  0
0 0  0
0 0  0
0 0  0
0 0  0
0 0  0
0 0  0
0 0  0
0 0  0
0 0  0
0 0  0
0 0  0
0 0  0
0 0  0
0 0  0
0 0  0
0 0  0
0 0  0
0 0  0
0 0  0
0 0  0
0 0  0
0 0  0
0 0  0
0 0  0
0 0  0
0 0  0
0 0  0
0 0  0
0 0  0
0 0  0
0 0  0
0 0  0
0 0  0
0 0  0
0 0  0
0 0  0
0 0  0
0 0  0
0 0  0
0 0  0
0 0  0
0 0  0
0 0  0
0 0  0
0 0  0
0 0  0
0 0  0
0 0  0
0 0  0
0 0  0
0 0  0
0 0  0
0 0  0
0 0  0
0 0  0
0 0  0
0 0  0
0 0  0
0 0  0
0 0  0
0 0  0
0 0  0
0 0  0
0 0  0
0 0  0
0 0  0
0 0  0
0 0  0
0 0  0
0 0  0
0 0  0
0 0  0
0 0  0
0 0  0
0 0  0
0 0  0
0 0  0
0 0  0
0 0  0
0 0  0
0 0  0
0 0  0
0 0  0
0 0  0
0 0  0
0 0  0
0 0  0
0 0  0
0 0  0
0 0  0
0 0  0
0 0  0
0 0  0
0 0  0
0 0  0
0 0  0
0 0  0
0 0  0
0 0  0
0 0  0
0 0  0
0 0  0
0 0  0
0 0  0
0 0  0
0 0  0
0 0  0
0 0  0
0 0  0
0 0  0
0 0  0
0 0  0
0 0  0
0 0  0
0 0  0
0 0  0
0 0  0
0 0  0
0 0  0
0 0  0
0 0  0
0 0  0
0 0  0
0 0  0
0 0  0
0 0  0
0 0  0
0 0  0
0 0  0
0 0  0
0 0  0
0 0  0
0 0  0
0 0  0
0 0  0
0 0  0
0 0  0
0 0  0
0 0  0
0 0  0
0 0  0
0 0  0
0 0  0
0 0  0
0 0  0
0 0  0
0 0  0
0 0  0
0 0  0
0 0  0
0 0  0
0 0  0
0 0  0
0 0  0
0 0  0
0 0  0
0 0  0
0 0  0
0 0  0
0 0  0
0 0  0
0 0  0
0 0  0
0 0  0
0 0  0
0 0  0
0 0  0
0 0  0
0 0  0
0 0  0
0 0  0
0 0  0
0 0  0
0 0  0
0 0  0
0 0  0
0 0  0
0 0  0
0 0  0
0 0  0
0 0  0
0 0  0
0 0  0
0 0  0
0 0  0
0 0  0
0 0  0
0 0  0
0 0  0
0 0  0
0 0  0
0 0  0
0 0  0
0 0  0
0 0  0
0 0  0
0 0  0
0 0  0
0 0  0
0 0  0
0 0  0
0 0  0
0 0  0
0 0  0
0 0  0
0 0  0
0 0  0
0 0  0
0 0  0
0 0  0
0 0  0
0 0  0
0 0  0
0 0  0
0 0  0
0 0  0
0 0  0
0 0  0
0 0  0
0 0  0
0 0  0
0 0  0
0 0  0
0 0  0
0 0  0
0 0  0
0 0  0
0 0  0
0 0  0
0 0  0
0 0  0
0 0  0
0 0  0
0 0  0
0 0  0
0 0  0
0 0  0
0 0  0
0 0  0
0 0  0
0 0  0
0 0  0
0 0  0
0 0  0
0 0  0
0 0  0
0 0  0
0 0  0
0 0  0
0 0  0
0 0  0
0 0  0
0 0  0
0 0  0
0 0  0
0 0  0
0 0  0
0 0  0
0 0  0
0 0  0
0 0  0
0 0  0
0 0  0
0 0  0
0 0  0
0 0  0
0 0  0
0 0  0
0 0  0
0 0  0
0 0  0
0 0  0
0 0  0
0 0  0
0 0  0
0 0  0
0 0  0
0 0  0
0 0  0
0 0  0
0 0  0
0 0  0
0 0  0
0 0  0
0 0  0
0 0  0
0 0  0
0 0  0
0 0  0
0 0  0
0 0  0
0 0  0
0 0  0
0 0  0
0 0  0
0 0  0
0 0  0
0 0  0
0 0  0
0 0  0
0 0  0
0 0  0
0 0  0
0 0  0
0 0  0
0 0  0
0 0  0
0 0  0
0 0  0
0 0  0
0 0  0
0 0  0
0 0  0
0 0  0
0 0  0
0 0  0
0 0  0
0 0  0
0 0  0
0 0  0
0 0  0
0 0  0
0 0  0
0 0  0
0 0  0
0 0  0
0 0  0
0 0  0
0 0  0
0 0  0
0 0  0
0 0  0
0 0  0
0 0  0
0 0  0
0 0  0
0 0  0
0 0  0
0 0  0
0 0  0
0 0  0
0 0  0
0 0  0
0 0  0
0 0  0
0 0  0
0 0  0
0 0  0
0 0  0
0 0  0
0 0  0
0 0  0
0 0  0
0 0  0
0 0  0
0 0  0
0 0  0
0 0  0
0 0  0
0 0  0
0 0  0
0 0  0
0 0  0
0 0  0
0 0  0
0 0  0
0 0  0
0 0  0
0 0  0
0 0  0
0 0  0
0 0  0
0 0  0
0 0  0
0 0  0
0 0  0
0 0  0
0 0  0
0 0  0
0 0  0
0 0  0
0 0  0
0 0  0
0 0  0
0 0  0
0 0  0
0 0  0
0 0  0
0 0  0
0 0  0
0 0  0
0 0  0

SCALARS pressure double 1
LOOKUP_TABLE default
2.41562
2.40935
2.40218
2.39133
2.36192
2.3299
2.29071
2.23932
2.17267
2.08771
1.97994
1.84838
1.69649
1.5333
1.36914
1.21494
1.07504
0.949863
0.840353
0.751289
0.678889
0.613635
0.546862
0.482521
0.428308
0.370337
0.288453
0.166171
-0.0257518
0
0
0
0
0
0
0
0
0
0
0
0
0
0
0
0
0
0
0
0
0
2.17915
2.18186
2.17402
2.14692
2.12515
2.09078
2.04723
1.99321
1.92413
1.83588
1.72467
1.58895
1.4332
1.26738
1.10328
0.955546
0.823989
0.703632
0.594085
0.516336
0.455364
0.397009
0.331273
0.258655
0.217557
0.179779
0.115174
0.0119215
0
0
0
0
0
0
0
0
0
0
0
0
0
0
0
0
0
0
0
0
0
0
1.92739
1.92188
1.90326
1.88392
1.85418
1.81634
1.76838
1.70923
1.6356
1.54214
1.42506
1.28158
1.11739
0.946092
0.779798
0.647479
0.535145
0.421579
0.304866
0.249013
0.215537
0.175258
0.111298
-0.00339482
-0.00635347
0
-0.0223895
0
0
0
0
0
0
0
0
0
0
0
0
0
0
0
0
0
0
0
0
0
0
0
1.64278
1.63443
1.61595
1.59111
1.55563
1.51027
1.45595
1.39044
1.30956
1.2084
1.08493
0.932517
0.756028
0.578138
0.396991
0.300229
0.228945
0.130154
-0.0416307
-0.04515
-0.0257357
-0.0287886
-0.0650812
0
0
0
0
0
0
0
0
0
0
0
0
0
0
0
0
0
0
0
0
0
0
0
0
0
0
0
1.33453
1.32403
1.30589
1.27409
1.23046
1.17486
1.11317
1.04071
0.950363
0.836695
0.712792
0.554983
0.360092
0.192123
-0.0651287
-0.0734659
-0.0555497
-0.0853805
0
0
0
0
0
0
0
0
0
0
0
0
0
0
0
0
0
0
0
0
0
0
0
0
0
0
0
0
0
0
0
0
1.00655
0.995941
0.975093
0.938129
0.88192
0.809178
0.743201
0.667877
0.566913
0.421924
0.3257
0.180567
-0.0638143
-0.0905408
0
0
0
0
0
0
0
0
0
0
0
0
0
0
0
0
0
0
0
0
0
0
0
0
0
0
0
0
0
0
0
0
0
0
0
0
0.660513
0.651831
0.630704
0.590508
0.517806
0.402316
0.349475
0.286412
0.187362
-0.0720386
-0.0314945
-0.0921143
0
0
0
0
0
0
0
0
0
0
0
0
0
0
0
0
0
0
0
0
0
0
0
0
0
0
0
0
0
0
0
0
0
0
0
0
0
0
0.297757
0.290937
0.278476
0.246479
0.165752
-0.0879882
-0.0501447
-0.0763601
-0.0521169
0
0
0
0
0
0
0
0
0
0
0
0
0
0
0
0
0
0
0
0
0
0
0
0
0
0
0
0
0
0
0
0
0
0
0
0
0
0
0
0
0
-0.0723474
-0.0810054
-0.0690838
-0.0637411
-0.0277171
0
0
0
0
0
0
0
0
0
0
0
0
0
0
0
0
0
0
0
0
0
0
0
0
0
0
0
0
0
0
0
0
0
0
0
0
0
0
0
0
0
0
0
0
0
0
0
0
0
0
0
0
0
0
0
0
0
0
0
0
0
0
0
0
0
0
0
0
0
0
0
0
0
0
0
0
0
0
0
0
0
0
0
0
0
0
0
0
0
0
0
0
0
0
0
0
0
0
0
0
0
0
0
0
0
0
0
0
0
0
0
0
0
0
0
0
0
0
0
0
0
0
0
0
0
0
0
0
0
0
0
0
0
0
0
0
0
0
0
0
0
0
0
0
0
0
0
0
0
0
0
0
0
0
0
0
0
0
0
0
0
0
0
0
0
0
0
0
0
0
0
0
0
0
0
0
0
0
0
0
0
0
0
0
0
0
0
0
0
0
0
0
0
0
0
0
0
0
0
0
0
0
0
0
0
0
0
0
0
0
0
0
0
0
0
0
0
0
0
0
0
0
0
0
0
0
0
0
0
0
0
0
0
0
0
0
0
0
0
0
0
0
0
0
0
0
0
0
0
0
0
0
0
0
0
0
0
0
0
0
0
0
0
0
0
0
0
0
0
0
0
0
0
0
0
0
0
0
0
0
0
0
0
0
0
0
0
0
0
0
0
0
0
0
0
0
0
0
0
0
0
0
0
0
0
0
0
0
0
0
0
0
0
0
0
0
0
0
0
0
0
0
0
0
0
0
0
0
0
0
0
0
0
0
0
0
0
0
0
0
0
0
0
0
0
0
0
0
0
0
0
0
0
0
0
0
0
0
0
0
0
0
0
0
0
0
0
0
0
0
0
0
0
0
0
0
0
0
0
0
0
0
0
0
0
0
0
0
0
0
0
0
0
0
0
0
0
0
0
0
0
0
0
0
0
0
0
0
0
0
0
0
0
0
0
0
0
0
0
0
0
0
0
0
0
0
0
0
0
0
0
0
0
0
0
0
0
0
0
0
0
0
0
0
0
0
0
0
0
0
0
0
0
0
0
0
0
0
0
0
0
0
0
0
0
0
0
0
0
0
0
0
0
0
0
0
0
0
0
0
0
0
0
0
0
0
0
0
0
0
0
0
0
0
0
0
0
0
0
0
0
0
0
0
0
0
0
0
0
0
0
0
0
0
0
0
0
0
0
0
0
0
0
0
0
0
0
0
0
0
0
0
0
0
0
0
0
0
0
0
0
0
0
0
0
0
0
0
0
0
0
0
0
0
0
0
0
0
0
0
0
0
0
0
0
0
0
0
0
0
0
0
0
0
0
0
0
0
0
0
0
0
0
0
0
0
0
0
0
0
0
0
0
0
0
SCALARS rhs double 1
LOOKUP_TABLE default
-5.91363
-5.8136
-5.95444
-6.11541
-6.18205
-6.18064
-6.3125
-6.50316
-6.68529
-6.84625
-6.95391
-6.97903
-6.86736
-6.66748
-6.39483
-6.12821
-5.92039
-5.7714
-5.61032
-5.48667
-5.40944
-5.42525
-5.3627
-5.33697
-5.35173
-5.3624
-5.34201
-5.59702
1.52141
0
0
0
0
0
0
0
0
0
0
0
0
0
0
0
0
0
0
0
0
0
-0.618794
-0.996034
-0.966028
-0.900033
-0.925364
-1.09428
-1.19063
-1.29012
-1.45732
-1.62936
-1.73248
-1.69895
-1.55465
-1.34529
-1.03578
-0.818452
-0.675206
-0.576792
-0.344999
-0.320816
-0.404195
-0.287225
-0.263143
-0.177712
-0.257886
-0.400183
-0.0731361
1.52141
0
0
0
0
0
0
0
0
0
0
0
0
0
0
0
0
0
0
0
0
0
0
-0.895328
-0.798728
-0.811523
-0.852448
-0.93736
-1.01344
-1.11823
-1.25808
-1.41532
-1.58153
-1.67191
-1.57818
-1.31881
-1.04022
-0.632044
-0.480248
-0.468368
-0.299212
0.0566566
-0.0918889
-0.183513
-0.192634
-0.157198
10.6282
5.84627
2.78791
0.579789
0
0
0
0
0
0
0
0
0
0
0
0
0
0
0
0
0
0
0
0
0
0
0
-0.734223
-0.825898
-0.804387
-0.830005
-0.906479
-0.967556
-1.04015
-1.16192
-1.33571
-1.50807
-1.53074
-1.32117
-0.897359
-0.534051
0.12446
-0.0263651
-0.136916
0.0705199
21.2675
14.8837
10.6282
5.84627
2.78791
0
0
0
0
0
0
0
0
0
0
0
0
0
0
0
0
0
0
0
0
0
0
0
0
0
0
0
-0.699586
-0.75689
-0.768487
-0.811224
-0.844448
-0.903233
-0.954589
-1.02783
-1.19329
-1.34662
-1.2268
-0.8398
-0.0347954
0.350016
37.4134
28.7374
16.7854
9.20747
0
0
0
0
0
0
0
0
0
0
0
0
0
0
0
0
0
0
0
0
0
0
0
0
0
0
0
0
0
0
0
0
-0.696017
-0.70954
-0.719051
-0.764989
-0.801016
-0.843106
-0.831209
-0.867079
-1.01591
-0.758017
-0.467843
0.0600482
10.6541
33.4754
0
0
0
0
0
0
0
0
0
0
0
0
0
0
0
0
0
0
0
0
0
0
0
0
0
0
0
0
0
0
0
0
0
0
0
0
-0.665528
-0.696025
-0.685848
-0.71226
-0.764989
-0.522034
-0.410726
-0.446926
-0.50704
0.313071
3.24331
14.7542
26.3021
0
0
0
0
0
0
0
0
0
0
0
0
0
0
0
0
0
0
0
0
0
0
0
0
0
0
0
0
0
0
0
0
0
0
0
0
0
-0.365544
-0.404816
-0.373961
-0.370138
-0.364014
0.334767
1.51771
4.40905
7.91163
8.9678
11.6117
27.2717
0
0
0
0
0
0
0
0
0
0
0
0
0
0
0
0
0
0
0
0
0
0
0
0
0
0
0
0
0
0
0
0
0
0
0
0
0
0
2.87344
3.0114
4.43138
4.54499
6.27307
7.47839
9.23983
7.89527
5.98596
8.49533
41.2731
0
0
0
0
0
0
0
0
0
0
0
0
0
0
0
0
0
0
0
0
0
0
0
0
0
0
0
0
0
0
0
0
0
0
0
0
0
0
0
9.36633
9.33066
8.04142
9.25902
7.69325
7.78758
9.09454
10.208
11.1703
21.7759
3.2041
0
0
0
0
0
0
0
0
0
0
0
0
0
0
0
0
0
0
0
0
0
0
0
0
0
0
0
0
0
0
0
0
0
0
0
0
0
0
0
7.92952
10.0992
10.1145
8.86149
11.2589
12.4355
10.8064
8.57914
8.60392
43.2779
0
0
0
0
0
0
0
0
0
0
0
0
0
0
0
0
0
0
0
0
0
0
0
0
0
0
0
0
0
0
0
0
0
0
0
0
0
0
0
0
13.2058
10.8439
11.0393
13.0106
10.7272
10.2862
9.48307
9.57063
8.67562
33.2233
0
0
0
0
0
0
0
0
0
0
0
0
0
0
0
0
0
0
0
0
0
0
0
0
0
0
0
0
0
0
0
0
0
0
0
0
0
0
0
0
8.71388
9.82855
9.83715
7.65861
8.9401
7.02241
6.34758
6.44313
5.90605
26.1906
0
0
0
0
0
0
0
0
0
0
0
0
0
0
0
0
0
0
0
0
0
0
0
0
0
0
0
0
0
0
0
0
0
0
0
0
0
0
0
0
7.061
5.55892
5.71513
6.83869
5.56628
5.6724
5.42452
5.43401
4.26976
17.1298
0
0
0
0
0
0
0
0
0
0
0
0
0
0
0
0
0
0
0
0
0
0
0
0
0
0
0
0
0
0
0
0
0
0
0
0
0
0
0
0
6.55202
6.55536
6.55982
5.31204
5.40986
6.30896
5.08555
5.09432
5.2091
10.3371
0
0
0
0
0
0
0
0
0
0
0
0
0
0
0
0
0
0
0
0
0
0
0
0
0
0
0
0
0
0
0
0
0
0
0
0
0
0
0
0
5.52783
5.53996
5.54196
5.54121
5.54439
4.52522
5.16545
5.22779
16.4546
0
0
0
0
0
0
0
0
0
0
0
0
0
0
0
0
0
0
0
0
0
0
0
0
0
0
0
0
0
0
0
0
0
0
0
0
0
0
0
0
0
3.60674
3.66202
3.98033
3.98143
3.98244
3.98396
3.23505
3.31189
11.5415
0
0
0
0
0
0
0
0
0
0
0
0
0
0
0
0
0
0
0
0
0
0
0
0
0
0
0
0
0
0
0
0
0
0
0
0
0
0
0
0
0
6.01719
6.36025
5.75447
5.75462
5.75506
5.75536
5.75588
5.76119
8.30564
0
0
0
0
0
0
0
0
0
0
0
0
0
0
0
0
0
0
0
0
0
0
0
0
0
0
0
0
0
0
0
0
0
0
0
0
0
0
0
0
0
3.29611
2.74112
2.74112
2.74112
2.74112
2.74112
2.74112
2.74112
2.74112
0
0
0
0
0
0
0
0
0
0
0
0
0
0
0
0
0
0
0
0
0
0
0
0
0
0
0
0
0
0
0
0
0
0
0
0
0
0
0
0
0
0
0
0
0
0
0
0
0
0
0
0
0
0
0
0
0
0
0
0
0
0
0
0
0
0
0
0
0
0
0
0
0
0
0
0
0
0
0
0
0
0
0
0
0
0
0
0
0
0
0
