# vtk DataFile Version 4.0
Nusif Fluid VTK output
ASCII
DATASET STRUCTURED_POINTS
DIMENSIONS 50 20 1
ORIGIN 0 0 0 
SPACING 0.2 0.2 1
POINT_DATA 1000 

VECTORS velocity double
0.0427541 -0.0459148  0
0.128021 -0.0462746  0
0.213661 -0.0468954  0
0.300772 -0.0477957  0
0.38987 -0.0490099  0
0.481661 -0.0506232  0
0.577036 -0.052654  0
0.676903 -0.0551869  0
0.782102 -0.0581041  0
0.893277 -0.0612155  0
1.01068 -0.0643898  0
1.13427 -0.0674611  0
1.26308 -0.0696489  0
1.39432 -0.0699291  0
1.52283 -0.0669566  0
1.64311 -0.0617098  0
1.7516 -0.0551941  0
1.84666 -0.0482786  0
1.92943 -0.0429303  0
2.00272 -0.0388107  0
2.06804 -0.0349475  0
2.12598 -0.0314189  0
2.17777 -0.0288197  0
2.22589 -0.0277379  0
2.27354 -0.0283572  0
2.3226 -0.0291405  0
2.36818 -0.0248852  0
2.40032 -0.0157036  0
2.41871 -0.0111269  0
2.43364 -0.0122445  0
2.4522 -0.0147597  0
2.46613 -0.00760339  0
2.45069 0.0145997  0
2.40642 0.0212246  0
2.38097 0  0
1.19049 0  0
0 0  0
0 0  0
0 0  0
0 0  0
0 0  0
0 0  0
0 0  0
0 0  0
0 0  0
0 0  0
0 0  0
0 0  0
0 0  0
0 0  0
0.0425107 -0.138111  0
0.127394 -0.139127  0
0.212669 -0.140901  0
0.299257 -0.143476  0
0.387638 -0.146981  0
0.478479 -0.151568  0
0.572564 -0.157488  0
0.67076 -0.164872  0
0.773847 -0.173253  0
0.882016 -0.182013  0
0.995099 -0.190746  0
1.1132 -0.199517  0
1.23592 -0.205903  0
1.36167 -0.207473  0
1.48544 -0.198516  0
1.60126 -0.183101  0
1.70543 -0.163326  0
1.79528 -0.14192  0
1.87246 -0.126147  0
1.94157 -0.114881  0
2.00497 -0.104473  0
2.06244 -0.0941748  0
2.11421 -0.0865251  0
2.16238 -0.0831938  0
2.21031 -0.0853668  0
2.26165 -0.0894201  0
2.31263 -0.0780533  0
2.348 -0.046932  0
2.36671 -0.0338735  0
2.38277 -0.0373734  0
2.40395 -0.0462626  0
2.43086 -0.0338136  0
2.44673 0.0277106  0
2.44822 0.0424493  0
2.4146 0.0212246  0
1.19049 0  0
0 0  0
0 0  0
0 0  0
0 0  0
0 0  0
0 0  0
0 0  0
0 0  0
0 0  0
0 0  0
0 0  0
0 0  0
0 0  0
0 0  0
0.0421821 -0.230476  0
0.12651 -0.232043  0
0.211177 -0.234775  0
0.296873 -0.238794  0
0.384031 -0.244131  0
0.473074 -0.251171  0
0.564665 -0.260473  0
0.659816 -0.272201  0
0.759022 -0.285122  0
0.861379 -0.29762  0
0.96603 -0.309832  0
1.07358 -0.323012  0
1.18304 -0.331535  0
1.29586 -0.337354  0
1.40974 -0.323197  0
1.51843 -0.299845  0
1.6148 -0.264033  0
1.69755 -0.230718  0
1.77037 -0.204273  0
1.83616 -0.188528  0
1.89912 -0.174073  0
1.95853 -0.158341  0
2.01331 -0.145795  0
2.06371 -0.139385  0
2.11194 -0.142217  0
2.16258 -0.151437  0
2.21566 -0.136983  0
2.25805 -0.0784224  0
2.28602 -0.0574953  0
2.3102 -0.0624361  0
2.32828 -0.0689134  0
2.33419 -0.0524205  0
2.38309 -0.0130994  0
2.44011 0.0212246  0
1.22411 0.0212246  0
0 0  0
0 0  0
0 0  0
0 0  0
0 0  0
0 0  0
0 0  0
0 0  0
0 0  0
0 0  0
0 0  0
0 0  0
0 0  0
0 0  0
0 0  0
0.0419506 -0.322525  0
0.125839 -0.324563  0
0.209797 -0.327775  0
0.294424 -0.333107  0
0.379889 -0.33939  0
0.466117 -0.348103  0
0.554053 -0.360057  0
0.645215 -0.375902  0
0.739271 -0.391638  0
0.832598 -0.40375  0
0.925563 -0.418292  0
1.02129 -0.434779  0
1.11147 -0.436361  0
1.20043 -0.451249  0
1.29756 -0.437236  0
1.39572 -0.409575  0
1.48557 -0.353207  0
1.56959 -0.316772  0
1.6551 -0.285004  0
1.72929 -0.256217  0
1.79726 -0.245767  0
1.86247 -0.219699  0
1.92141 -0.206595  0
1.97789 -0.193919  0
2.026 -0.192463  0
2.06343 -0.197695  0
2.07881 -0.167631  0
2.16397 -0.131009  0
2.27613 -0.0347487  0
2.31286 -0.0373073  0
2.31719 -0.0374104  0
2.32299 -0.0262103  0
1.1671 -0.0262103  0
0 0  0
0 0  0
0 0  0
0 0  0
0 0  0
0 0  0
0 0  0
0 0  0
0 0  0
0 0  0
0 0  0
0 0  0
0 0  0
0 0  0
0 0  0
0 0  0
0 0  0
0.041942 -0.414538  0
0.125943 -0.417053  0
0.20887 -0.419134  0
0.291746 -0.426274  0
0.374438 -0.431374  0
0.456138 -0.441037  0
0.539191 -0.455117  0
0.626684 -0.476475  0
0.71323 -0.488689  0
0.793867 -0.497642  0
0.872964 -0.51342  0
0.954252 -0.533627  0
1.03484 -0.521009  0
1.10865 -0.537841  0
1.16919 -0.516768  0
1.19476 -0.462241  0
1.34326 -0.428426  0
1.53623 -0.179696  0
1.61916 -0.163948  0
1.70656 -0.143759  0
1.77762 -0.141219  0
1.83975 -0.124115  0
1.90729 -0.118506  0
1.96664 -0.10999  0
2.02255 -0.107255  0
2.03999 -0.106538  0
2.05609 -0.0838153  0
1.0394 -0.0838153  0
0 0  0
0 0  0
0 0  0
0 0  0
0 0  0
0 0  0
0 0  0
0 0  0
0 0  0
0 0  0
0 0  0
0 0  0
0 0  0
0 0  0
0 0  0
0 0  0
0 0  0
0 0  0
0 0  0
0 0  0
0 0  0
0 0  0
0.0420407 -0.506817  0
0.126234 -0.509806  0
0.207434 -0.507575  0
0.285914 -0.516246  0
0.364136 -0.519344  0
0.440223 -0.527869  0
0.516898 -0.545031  0
0.598697 -0.572847  0
0.675195 -0.568125  0
0.741697 -0.573853  0
0.807157 -0.590245  0
0.840195 -0.579606  0
0.963415 -0.569733  0
1.0999 -0.286402  0
1.11391 -0.27117  0
1.15471 -0.23112  0
0.597382 -0.23112  0
0 0  0
0 0  0
0 0  0
0 0  0
0 0  0
0 0  0
0 0  0
0 0  0
0 0  0
0 0  0
0 0  0
0 0  0
0 0  0
0 0  0
0 0  0
0 0  0
0 0  0
0 0  0
0 0  0
0 0  0
0 0  0
0 0  0
0 0  0
0 0  0
0 0  0
0 0  0
0 0  0
0 0  0
0 0  0
0 0  0
0 0  0
0 0  0
0 0  0
0.0426913 -0.595739  0
0.122943 -0.593811  0
0.199653 -0.590043  0
0.279787 -0.600913  0
0.349448 -0.591076  0
0.422181 -0.613474  0
0.484769 -0.607196  0
0.503302 -0.619517  0
0.608324 -0.610861  0
0.752236 -0.303138  0
0.793822 -0.311641  0
0.818357 -0.289803  0
0.420098 -0.289803  0
0 0  0
0 0  0
0 0  0
0 0  0
0 0  0
0 0  0
0 0  0
0 0  0
0 0  0
0 0  0
0 0  0
0 0  0
0 0  0
0 0  0
0 0  0
0 0  0
0 0  0
0 0  0
0 0  0
0 0  0
0 0  0
0 0  0
0 0  0
0 0  0
0 0  0
0 0  0
0 0  0
0 0  0
0 0  0
0 0  0
0 0  0
0 0  0
0 0  0
0 0  0
0 0  0
0 0  0
0 0  0
0.0391616 -0.319215  0
0.118324 -0.315686  0
0.204916 -0.314597  0
0.275067 -0.320948  0
0.357264 -0.309877  0
0.425168 -0.328764  0
0.465763 -0.312865  0
0.500196 -0.309759  0
0.251651 -0.309759  0
0 0  0
0 0  0
0 0  0
0 0  0
0 0  0
0 0  0
0 0  0
0 0  0
0 0  0
0 0  0
0 0  0
0 0  0
0 0  0
0 0  0
0 0  0
0 0  0
0 0  0
0 0  0
0 0  0
0 0  0
0 0  0
0 0  0
0 0  0
0 0  0
0 0  0
0 0  0
0 0  0
0 0  0
0 0  0
0 0  0
0 0  0
0 0  0
0 0  0
0 0  0
0 0  0
0 0  0
0 0  0
0 0  0
0 0  0
0 0  0
0 0  0
0 0  0
0 0  0
0 0  0
0 0  0
0 0  0
0 0  0
0 0  0
0 0  0
0 0  0
0 0  0
0 0  0
0 0  0
0 0  0
0 0  0
0 0  0
0 0  0
0 0  0
0 0  0
0 0  0
0 0  0
0 0  0
0 0  0
0 0  0
0 0  0
0 0  0
0 0  0
0 0  0
0 0  0
0 0  0
0 0  0
0 0  0
0 0  0
0 0  0
0 0  0
0 0  0
0 0  0
0 0  0
0 0  0
0 0  0
0 0  0
0 0  0
0 0  0
0 0  0
0 0  0
0 0  0
0 0  0
0 0  0
0 0  0
0 0  0
0 0  0
0 0  0
0 0  0
0 0  0
0 0  0
0 0  0
0 0  0
0 0  0
0 0  0
0 0  0
0 0  0
0 0  0
0 0  0
0 0  0
0 0  0
0 0  0
0 0  0
0 0  0
0 0  0
0 0  0
0 0  0
0 0  0
0 0  0
0 0  0
0 0  0
0 0  0
0 0  0
0 0  0
0 0  0
0 0  0
0 0  0
0 0  0
0 0  0
0 0  0
0 0  0
0 0  0
0 0  0
0 0  0
0 0  0
0 0  0
0 0  0
0 0  0
0 0  0
0 0  0
0 0  0
0 0  0
0 0  0
0 0  0
0 0  0
0 0  0
0 0  0
0 0  0
0 0  0
0 0  0
0 0  0
0 0  0
0 0  0
0 0  0
0 0  0
0 0  0
0 0  0
0 0  0
0 0  0
0 0  0
0 0  0
0 0  0
0 0  0
0 0  0
0 0  0
0 0  0
0 0  0
0 0  0
0 0  0
0 0  0
0 0  0
0 0  0
0 0  0
0 0  0
0 0  0
0 0  0
0 0  0
0 0  0
0 0  0
0 0  0
0 0  0
0 0  0
0 0  0
0 0  0
0 0  0
0 0  0
0 0  0
0 0  0
0 0  0
0 0  0
0 0  0
0 0  0
0 0  0
0 0  0
0 0  0
0 0  0
0 0  0
0 0  0
0 0  0
0 0  0
0 0  0
0 0  0
0 0  0
0 0  0
0 0  0
0 0  0
0 0  0
0 0  0
0 0  0
0 0  0
0 0  0
0 0  0
0 0  0
0 0  0
0 0  0
0 0  0
0 0  0
0 0  0
0 0  0
0 0  0
0 0  0
0 0  0
0 0  0
0 0  0
0 0  0
0 0  0
0 0  0
0 0  0
0 0  0
0 0  0
0 0  0
0 0  0
0 0  0
0 0  0
0 0  0
0 0  0
0 0  0
0 0  0
0 0  0
0 0  0
0 0  0
0 0  0
0 0  0
0 0  0
0 0  0
0 0  0
0 0  0
0 0  0
0 0  0
0 0  0
0 0  0
0 0  0
0 0  0
0 0  0
0 0  0
0 0  0
0 0  0
0 0  0
0 0  0
0 0  0
0 0  0
0 0  0
0 0  0
0 0  0
0 0  0
0 0  0
0 0  0
0 0  0
0 0  0
0 0  0
0 0  0
0 0  0
0 0  0
0 0  0
0 0  0
0 0  0
0 0  0
0 0  0
0 0  0
0 0  0
0 0  0
0 0  0
0 0  0
0 0  0
0 0  0
0 0  0
0 0  0
0 0  0
0 0  0
0 0  0
0 0  0
0 0  0
0 0  0
0 0  0
0 0  0
0 0  0
0 0  0
0 0  0
0 0  0
0 0  0
0 0  0
0 0  0
0 0  0
0 0  0
0 0  0
0 0  0
0 0  0
0 0  0
0 0  0
0 0  0
0 0  0
0 0  0
0 0  0
0 0  0
0 0  0
0 0  0
0 0  0
0 0  0
0 0  0
0 0  0
0 0  0
0 0  0
0 0  0
0 0  0
0 0  0
0 0  0
0 0  0
0 0  0
0 0  0
0 0  0
0 0  0
0 0  0
0 0  0
0 0  0
0 0  0
0 0  0
0 0  0
0 0  0
0 0  0
0 0  0
0 0  0
0 0  0
0 0  0
0 0  0
0 0  0
0 0  0
0 0  0
0 0  0
0 0  0
0 0  0
0 0  0
0 0  0
0 0  0
0 0  0
0 0  0
0 0  0
0 0  0
0 0  0
0 0  0
0 0  0
0 0  0
0 0  0
0 0  0
0 0  0
0 0  0
0 0  0
0 0  0
0 0  0
0 0  0
0 0  0
0 0  0
0 0  0
0 0  0
0 0  0
0 0  0
0 0  0
0 0  0
0 0  0
0 0  0
0 0  0
0 0  0
0 0  0
0 0  0
0 0  0
0 0  0
0 0  0
0 0  0
0 0  0
0 0  0
0 0  0
0 0  0
0 0  0
0 0  0
0 0  0
0 0  0
0 0  0
0 0  0
0 0  0
0 0  0
0 0  0
0 0  0
0 0  0
0 0  0
0 0  0
0 0  0
0 0  0
0 0  0
0 0  0
0 0  0
0 0  0
0 0  0
0 0  0
0 0  0
0 0  0
0 0  0
0 0  0
0 0  0
0 0  0
0 0  0
0 0  0
0 0  0
0 0  0
0 0  0
0 0  0
0 0  0
0 0  0
0 0  0
0 0  0
0 0  0
0 0  0
0 0  0
0 0  0
0 0  0
0 0  0
0 0  0
0 0  0
0 0  0
0 0  0
0 0  0
0 0  0
0 0  0
0 0  0
0 0  0
0 0  0
0 0  0
0 0  0
0 0  0
0 0  0
0 0  0
0 0  0
0 0  0
0 0  0
0 0  0
0 0  0
0 0  0
0 0  0
0 0  0
0 0  0
0 0  0
0 0  0
0 0  0
0 0  0
0 0  0
0 0  0
0 0  0
0 0  0
0 0  0
0 0  0
0 0  0
0 0  0
0 0  0
0 0  0
0 0  0
0 0  0
0 0  0
0 0  0
0 0  0
0 0  0
0 0  0
0 0  0
0 0  0
0 0  0
0 0  0
0 0  0
0 0  0
0 0  0
0 0  0
0 0  0
0 0  0
0 0  0
0 0  0
0 0  0
0 0  0
0 0  0
0 0  0
0 0  0
0 0  0
0 0  0
0 0  0
0 0  0
0 0  0
0 0  0
0 0  0
0 0  0
0 0  0
0 0  0
0 0  0
0 0  0
0 0  0
0 0  0
0 0  0
0 0  0
0 0  0
0 0  0
0 0  0
0 0  0
0 0  0
0 0  0
0 0  0
0 0  0
0 0  0
0 0  0
0 0  0
0 0  0
0 0  0
0 0  0
0 0  0
0 0  0
0 0  0
0 0  0
0 0  0
0 0  0
0 0  0
0 0  0
0 0  0
0 0  0
0 0  0
0 0  0
0 0  0
0 0  0
0 0  0
0 0  0
0 0  0
0 0  0
0 0  0
0 0  0
0 0  0
0 0  0
0 0  0
0 0  0
0 0  0
0 0  0
0 0  0
0 0  0
0 0  0
0 0  0
0 0  0
0 0  0
0 0  0
0 0  0
0 0  0
0 0  0
0 0  0
0 0  0
0 0  0
0 0  0
0 0  0
0 0  0
0 0  0
0 0  0
0 0  0
0 0  0
0 0  0
0 0  0
0 0  0
0 0  0
0 0  0
0 0  0
0 0  0
0 0  0
0 0  0
0 0  0
0 0  0
0 0  0
0 0  0
0 0  0
0 0  0
0 0  0
0 0  0
0 0  0
0 0  0
0 0  0
0 0  0
0 0  0
0 0  0
0 0  0
0 0  0
0 0  0
0 0  0
0 0  0
0 0  0
0 0  0
0 0  0
0 0  0
0 0  0
0 0  0
0 0  0
0 0  0
0 0  0
0 0  0
0 0  0
0 0  0
0 0  0
0 0  0
0 0  0
0 0  0
0 0  0
0 0  0
0 0  0
0 0  0
0 0  0
0 0  0
0 0  0
0 0  0
0 0  0
0 0  0
0 0  0
0 0  0
0 0  0
0 0  0
0 0  0
0 0  0
0 0  0
0 0  0
0 0  0
0 0  0
0 0  0
0 0  0
0 0  0
0 0  0
0 0  0
0 0  0
0 0  0
0 0  0
0 0  0
0 0  0
0 0  0

SCALARS pressure double 1
LOOKUP_TABLE default
1.24894
1.24842
1.24629
1.24123
1.23274
1.22059
1.20419
1.18297
1.15676
1.12523
1.08721
1.04171
0.987822
0.92567
0.855706
0.781767
0.710725
0.652402
0.60944
0.578509
0.556282
0.539311
0.525686
0.512059
0.494621
0.469191
0.434627
0.397755
0.372745
0.354641
0.334696
0.310714
0.298255
0.376859
0.638577
0
0
0
0
0
0
0
0
0
0
0
0
0
0
0
1.04062
1.0402
1.03787
1.0326
1.02363
1.01075
0.992677
0.969344
0.940612
0.906521
0.866168
0.817736
0.761157
0.698906
0.62946
0.554675
0.480118
0.425757
0.39036
0.365961
0.349295
0.336531
0.326968
0.317542
0.303753
0.279898
0.241448
0.192569
0.172367
0.1624
0.145132
0.106957
0.00795983
-0.0295517
0
0
0
0
0
0
0
0
0
0
0
0
0
0
0
0
0.826584
0.826374
0.823916
0.818389
0.809007
0.794622
0.773977
0.746572
0.712459
0.674635
0.63116
0.577176
0.513316
0.452893
0.387117
0.311403
0.218506
0.1762
0.15886
0.145457
0.139994
0.133194
0.131033
0.129453
0.124316
0.107595
0.0663303
-0.0280109
-0.0277932
-0.0131601
-0.0121699
-0.0289565
0
0
0
0
0
0
0
0
0
0
0
0
0
0
0
0
0
0
0.606505
0.60651
0.604476
0.599173
0.589471
0.574174
0.550745
0.516603
0.472289
0.431894
0.389046
0.326556
0.24117
0.191987
0.141337
0.0761626
-0.090585
-0.0891991
-0.0687591
-0.0762844
-0.0593285
-0.0667717
-0.0571165
-0.0477411
-0.0374152
-0.0310995
-0.0451063
0
0
0
0
0
0
0
0
0
0
0
0
0
0
0
0
0
0
0
0
0
0
0
0.380294
0.380649
0.379684
0.375882
0.366361
0.353115
0.327894
0.285033
0.214098
0.179523
0.154207
0.084855
-0.0716536
-0.0703541
-0.0863947
-0.0518068
0
0
0
0
0
0
0
0
0
0
0
0
0
0
0
0
0
0
0
0
0
0
0
0
0
0
0
0
0
0
0
0
0
0
0.147452
0.147603
0.150018
0.150296
0.139259
0.136872
0.114582
0.0710653
-0.0830396
-0.0810377
-0.0349408
-0.0694379
0
0
0
0
0
0
0
0
0
0
0
0
0
0
0
0
0
0
0
0
0
0
0
0
0
0
0
0
0
0
0
0
0
0
0
0
0
0
-0.0831826
-0.0873819
-0.0753851
-0.0614177
-0.0946602
-0.0552063
-0.0747786
-0.0296643
0
0
0
0
0
0
0
0
0
0
0
0
0
0
0
0
0
0
0
0
0
0
0
0
0
0
0
0
0
0
0
0
0
0
0
0
0
0
0
0
0
0
0
0
0
0
0
0
0
0
0
0
0
0
0
0
0
0
0
0
0
0
0
0
0
0
0
0
0
0
0
0
0
0
0
0
0
0
0
0
0
0
0
0
0
0
0
0
0
0
0
0
0
0
0
0
0
0
0
0
0
0
0
0
0
0
0
0
0
0
0
0
0
0
0
0
0
0
0
0
0
0
0
0
0
0
0
0
0
0
0
0
0
0
0
0
0
0
0
0
0
0
0
0
0
0
0
0
0
0
0
0
0
0
0
0
0
0
0
0
0
0
0
0
0
0
0
0
0
0
0
0
0
0
0
0
0
0
0
0
0
0
0
0
0
0
0
0
0
0
0
0
0
0
0
0
0
0
0
0
0
0
0
0
0
0
0
0
0
0
0
0
0
0
0
0
0
0
0
0
0
0
0
0
0
0
0
0
0
0
0
0
0
0
0
0
0
0
0
0
0
0
0
0
0
0
0
0
0
0
0
0
0
0
0
0
0
0
0
0
0
0
0
0
0
0
0
0
0
0
0
0
0
0
0
0
0
0
0
0
0
0
0
0
0
0
0
0
0
0
0
0
0
0
0
0
0
0
0
0
0
0
0
0
0
0
0
0
0
0
0
0
0
0
0
0
0
0
0
0
0
0
0
0
0
0
0
0
0
0
0
0
0
0
0
0
0
0
0
0
0
0
0
0
0
0
0
0
0
0
0
0
0
0
0
0
0
0
0
0
0
0
0
0
0
0
0
0
0
0
0
0
0
0
0
0
0
0
0
0
0
0
0
0
0
0
0
0
0
0
0
0
0
0
0
0
0
0
0
0
0
0
0
0
0
0
0
0
0
0
0
0
0
0
0
0
0
0
0
0
0
0
0
0
0
0
0
0
0
0
0
0
0
0
0
0
0
0
0
0
0
0
0
0
0
0
0
0
0
0
0
0
0
0
0
0
0
0
0
0
0
0
0
0
0
0
0
0
0
0
0
0
0
0
0
0
0
0
0
0
0
0
0
0
0
0
0
0
0
0
0
0
0
0
0
0
0
0
0
0
0
0
0
0
0
0
0
0
0
0
0
0
0
0
0
0
0
0
0
0
0
0
0
0
0
0
0
0
0
0
0
0
0
0
0
0
0
0
0
0
0
0
0
0
0
0
0
0
0
0
0
0
0
0
0
0
0
0
0
0
0
0
0
0
0
0
0
0
0
0
0
0
0
0
0
0
0
0
0
0
0
0
0
0
0
0
0
0
0
0
0
0
0
0
0
0
0
0
0
0
0
0
0
0
0
0
0
0
0
0
0
0
0
0
0
0
0
0
0
0
0
0
0
0
0
0
0
0
0
0
0
0
0
0
0
0
0
0
0
0
0
0
0
0
0
0
0
0
0
0
0
0
0
0
0
0
0
0
0
0
0
0
0
0
0
0
0
0
0
0
0
0
0
0
0
0
0
0
0
0
0
0
0
0
0
0
0
0
0
0
0
0
SCALARS rhs double 1
LOOKUP_TABLE default
-4.95579
-5.13113
-5.17052
-5.19917
-5.23788
-5.28374
-5.34188
-5.41449
-5.49962
-5.59264
-5.68957
-5.78875
-5.85748
-5.85446
-5.7477
-5.60009
-5.44323
-5.28037
-5.17544
-5.10003
-5.03697
-4.99003
-4.96488
-4.96074
-4.96999
-4.96052
-4.88736
-4.83352
-4.83674
-4.85187
-4.84006
-4.80582
-4.9808
-5.58243
1.05528
0
0
0
0
0
0
0
0
0
0
0
0
0
0
0
-0.0406407
-0.183849
-0.20849
-0.226466
-0.246999
-0.275752
-0.315963
-0.369133
-0.432122
-0.492025
-0.550837
-0.62347
-0.675172
-0.662942
-0.537057
-0.401664
-0.270655
-0.100486
-0.0387015
-0.00195557
0.03893
0.0645781
0.0722477
0.055626
0.0300718
0.0609881
0.19108
0.332498
0.261167
0.234352
0.283865
0.175537
3.32916
1.92837
0
0
0
0
0
0
0
0
0
0
0
0
0
0
0
0
-0.0765613
-0.19983
-0.219148
-0.231008
-0.244007
-0.264222
-0.295921
-0.344472
-0.397767
-0.420555
-0.445139
-0.500321
-0.525738
-0.509489
-0.337125
-0.229946
0.07495
0.227483
0.194061
0.170419
0.209621
0.207329
0.204705
0.183368
0.155409
0.224846
0.265445
3.61167
4.18715
4.37266
3.32916
1.92837
0
0
0
0
0
0
0
0
0
0
0
0
0
0
0
0
0
0
-0.101508
-0.206791
-0.214506
-0.224241
-0.227117
-0.233158
-0.256618
-0.307197
-0.355749
-0.305989
-0.314939
-0.353981
-0.116393
-0.0747291
0.0850947
0.140959
1.37016
4.23145
25.0391
18.6553
14.3997
9.61786
6.5595
3.77159
4.18715
4.37266
1.92837
0
0
0
0
0
0
0
0
0
0
0
0
0
0
0
0
0
0
0
0
0
0
0
-0.128079
-0.219413
-0.201513
-0.214944
-0.195449
-0.190531
-0.208272
-0.268232
-0.0764301
0.0217655
0.0375071
0.00102989
1.68278
1.97336
41.185
32.509
19.5017
9.00999
0
0
0
0
0
0
0
0
0
0
0
0
0
0
0
0
0
0
0
0
0
0
0
0
0
0
0
0
0
0
0
0
0.0666743
-0.00975873
0.0408949
0.0563065
0.034971
0.0985629
0.0601411
0.0589667
1.12766
2.53879
4.03927
3.85695
12.4974
35.3186
0
0
0
0
0
0
0
0
0
0
0
0
0
0
0
0
0
0
0
0
0
0
0
0
0
0
0
0
0
0
0
0
0
0
0
0
1.13044
1.19841
1.75228
1.82719
2.58952
3.39673
4.2596
4.1388
2.09579
1.47098
2.53607
14.3387
26.3021
0
0
0
0
0
0
0
0
0
0
0
0
0
0
0
0
0
0
0
0
0
0
0
0
0
0
0
0
0
0
0
0
0
0
0
0
0
2.59543
2.54951
1.62039
1.22694
0.49828
0.777197
0.916648
3.70181
7.89906
8.9678
11.6117
27.2717
0
0
0
0
0
0
0
0
0
0
0
0
0
0
0
0
0
0
0
0
0
0
0
0
0
0
0
0
0
0
0
0
0
0
0
0
0
0
2.45787
2.59584
4.01582
4.53242
6.43299
7.47839
9.23983
7.89527
5.98596
8.49533
41.2731
0
0
0
0
0
0
0
0
0
0
0
0
0
0
0
0
0
0
0
0
0
0
0
0
0
0
0
0
0
0
0
0
0
0
0
0
0
0
0
9.36633
9.33066
8.04142
9.25902
7.69325
7.78758
9.09454
10.208
11.1703
21.7759
3.2041
0
0
0
0
0
0
0
0
0
0
0
0
0
0
0
0
0
0
0
0
0
0
0
0
0
0
0
0
0
0
0
0
0
0
0
0
0
0
0
7.92952
10.0992
10.1145
8.86149
11.2589
12.4355
10.8064
8.57914
8.60392
43.2779
0
0
0
0
0
0
0
0
0
0
0
0
0
0
0
0
0
0
0
0
0
0
0
0
0
0
0
0
0
0
0
0
0
0
0
0
0
0
0
0
13.2058
10.8439
11.0393
13.0106
10.7272
10.2862
9.48307
9.57063
8.67562
33.2233
0
0
0
0
0
0
0
0
0
0
0
0
0
0
0
0
0
0
0
0
0
0
0
0
0
0
0
0
0
0
0
0
0
0
0
0
0
0
0
0
8.71388
9.82855
9.83715
7.65861
8.9401
7.02241
6.34758
6.44313
5.90605
26.1906
0
0
0
0
0
0
0
0
0
0
0
0
0
0
0
0
0
0
0
0
0
0
0
0
0
0
0
0
0
0
0
0
0
0
0
0
0
0
0
0
7.061
5.55892
5.71513
6.83869
5.56628
5.6724
5.42452
5.43401
4.26976
17.1298
0
0
0
0
0
0
0
0
0
0
0
0
0
0
0
0
0
0
0
0
0
0
0
0
0
0
0
0
0
0
0
0
0
0
0
0
0
0
0
0
6.55202
6.55536
6.55982
5.31204
5.40986
6.30896
5.08555
5.09432
5.2091
10.3371
0
0
0
0
0
0
0
0
0
0
0
0
0
0
0
0
0
0
0
0
0
0
0
0
0
0
0
0
0
0
0
0
0
0
0
0
0
0
0
0
5.52783
5.53996
5.54196
5.54121
5.54439
4.52522
5.16545
5.22779
16.4546
0
0
0
0
0
0
0
0
0
0
0
0
0
0
0
0
0
0
0
0
0
0
0
0
0
0
0
0
0
0
0
0
0
0
0
0
0
0
0
0
0
3.60674
3.66202
3.98033
3.98143
3.98244
3.98396
3.23505
3.31189
11.5415
0
0
0
0
0
0
0
0
0
0
0
0
0
0
0
0
0
0
0
0
0
0
0
0
0
0
0
0
0
0
0
0
0
0
0
0
0
0
0
0
0
6.01719
6.36025
5.75447
5.75462
5.75506
5.75536
5.75588
5.76119
8.30564
0
0
0
0
0
0
0
0
0
0
0
0
0
0
0
0
0
0
0
0
0
0
0
0
0
0
0
0
0
0
0
0
0
0
0
0
0
0
0
0
0
3.29611
2.74112
2.74112
2.74112
2.74112
2.74112
2.74112
2.74112
2.74112
0
0
0
0
0
0
0
0
0
0
0
0
0
0
0
0
0
0
0
0
0
0
0
0
0
0
0
0
0
0
0
0
0
0
0
0
0
0
0
0
0
0
0
0
0
0
0
0
0
0
0
0
0
0
0
0
0
0
0
0
0
0
0
0
0
0
0
0
0
0
0
0
0
0
0
0
0
0
0
0
0
0
0
0
0
0
0
0
0
0
0
