# vtk DataFile Version 4.0
Nusif Fluid VTK output
ASCII
DATASET STRUCTURED_POINTS
DIMENSIONS 50 20 1
ORIGIN 0 0 0 
SPACING 0.2 0.2 1
POINT_DATA 1000 

VECTORS velocity double
0.0469364 -0.0480199  0
0.141738 -0.0484017  0
0.238489 -0.0496515  0
0.338017 -0.0516024  0
0.442081 -0.0538985  0
0.551832 -0.057239  0
0.668736 -0.0612211  0
0.79464 -0.0660909  0
0.930599 -0.0713553  0
1.07686 -0.0763365  0
1.23166 -0.0798956  0
1.39079 -0.0806852  0
1.54818 -0.0781261  0
1.6978 -0.0729171  0
1.83429 -0.0651463  0
1.95492 -0.0570282  0
2.06015 -0.0495919  0
2.15056 -0.042337  0
2.22474 -0.0331962  0
2.28238 -0.0256262  0
2.32737 -0.0207955  0
2.36493 -0.0181419  0
2.39634 -0.0144763  0
2.41598 -0.00645135  0
2.42212 -0.00097485  0
2.42359 -0.00177276  0
2.42167 0.0023939  0
2.40779 0.0102123  0
2.40735 -0.0104166  0
1.20888 0.0224321  0
0 0  0
0 0  0
0 0  0
0 0  0
0 0  0
0 0  0
0 0  0
0 0  0
0 0  0
0 0  0
0 0  0
0 0  0
0 0  0
0 0  0
0 0  0
0 0  0
0 0  0
0 0  0
0 0  0
0 0  0
0.0465838 -0.143029  0
0.14007 -0.144749  0
0.235229 -0.148305  0
0.333689 -0.153708  0
0.435972 -0.1609  0
0.543613 -0.17046  0
0.658407 -0.182415  0
0.781686 -0.196881  0
0.915224 -0.212833  0
1.05949 -0.22812  0
1.21285 -0.239008  0
1.37054 -0.2411  0
1.52507 -0.232349  0
1.66989 -0.215895  0
1.79901 -0.190739  0
1.91052 -0.166291  0
2.00788 -0.145622  0
2.09371 -0.125194  0
2.16296 -0.0963479  0
2.21377 -0.0736191  0
2.25348 -0.0599786  0
2.28871 -0.054348  0
2.3229 -0.0464663  0
2.34763 -0.0213802  0
2.35341 -0.00051587  0
2.35394 -0.00678304  0
2.36008 0.000623857  0
2.35784 0.0261931  0
2.35207 -0.0208332  0
1.17603 0.0120155  0
0 0  0
0 0  0
0 0  0
0 0  0
0 0  0
0 0  0
0 0  0
0 0  0
0 0  0
0 0  0
0 0  0
0 0  0
0 0  0
0 0  0
0 0  0
0 0  0
0 0  0
0 0  0
0 0  0
0 0  0
0.0452548 -0.23623  0
0.136546 -0.239186  0
0.229671 -0.244954  0
0.32526 -0.253476  0
0.424512 -0.265318  0
0.528584 -0.280442  0
0.638717 -0.299846  0
0.756865 -0.323549  0
0.884953 -0.350358  0
1.02412 -0.376629  0
1.17318 -0.395519  0
1.32664 -0.398253  0
1.47412 -0.379767  0
1.6086 -0.350434  0
1.72219 -0.301594  0
1.81492 -0.262034  0
1.89902 -0.233853  0
1.97997 -0.206231  0
2.04351 -0.150491  0
2.08516 -0.114612  0
2.11899 -0.0949405  0
2.15181 -0.0898918  0
2.1883 -0.0842347  0
2.22183 -0.0444266  0
2.23821 -0.00153259  0
2.24331 -0.0126761  0
2.24597 -0.00354008  0
2.32542 0.0142108  0
2.37847 -0.0104166  0
1.17603 -0.0104166  0
0 0  0
0 0  0
0 0  0
0 0  0
0 0  0
0 0  0
0 0  0
0 0  0
0 0  0
0 0  0
0 0  0
0 0  0
0 0  0
0 0  0
0 0  0
0 0  0
0 0  0
0 0  0
0 0  0
0 0  0
0.0438356 -0.326995  0
0.132113 -0.330823  0
0.222 -0.33858  0
0.314287 -0.350336  0
0.409757 -0.365822  0
0.508806 -0.385531  0
0.612365 -0.411092  0
0.72236 -0.443001  0
0.841071 -0.480267  0
0.969896 -0.517292  0
1.10812 -0.5447  0
1.251 -0.547926  0
1.38424 -0.513351  0
1.50248 -0.472195  0
1.59471 -0.388167  0
1.6636 -0.339493  0
1.73473 -0.314072  0
1.81354 -0.288389  0
1.87943 -0.199585  0
1.93013 -0.159038  0
1.97355 -0.129132  0
2.00533 -0.121531  0
2.03463 -0.11963  0
2.04977 -0.0589954  0
2.15089 -0.0314893  0
2.24309 -0.00766581  0
2.24007 -0.00177004  0
1.12298 -0.00177004  0
0 0  0
0 0  0
0 0  0
0 0  0
0 0  0
0 0  0
0 0  0
0 0  0
0 0  0
0 0  0
0 0  0
0 0  0
0 0  0
0 0  0
0 0  0
0 0  0
0 0  0
0 0  0
0 0  0
0 0  0
0 0  0
0 0  0
0.0422487 -0.414445  0
0.127328 -0.419427  0
0.21378 -0.428918  0
0.302749 -0.443843  0
0.394597 -0.462195  0
0.487972 -0.484133  0
0.583149 -0.513825  0
0.682285 -0.551948  0
0.78809 -0.598383  0
0.898615 -0.641062  0
1.01406 -0.677099  0
1.1356 -0.682474  0
1.2433 -0.622285  0
1.33751 -0.578254  0
1.41998 -0.458646  0
1.49134 -0.410488  0
1.55674 -0.380859  0
1.58511 -0.330028  0
1.72489 -0.277259  0
1.89126 -0.0924192  0
1.94898 -0.0733751  0
1.99934 -0.0678451  0
1.99628 -0.0673854  0
2.01188 -0.0294977  0
1.02488 -0.0294977  0
0 0  0
0 0  0
0 0  0
0 0  0
0 0  0
0 0  0
0 0  0
0 0  0
0 0  0
0 0  0
0 0  0
0 0  0
0 0  0
0 0  0
0 0  0
0 0  0
0 0  0
0 0  0
0 0  0
0 0  0
0 0  0
0 0  0
0 0  0
0 0  0
0 0  0
0.0408001 -0.498843  0
0.122941 -0.504804  0
0.206336 -0.516007  0
0.2927 -0.534681  0
0.382625 -0.555649  0
0.46988 -0.573929  0
0.553354 -0.605232  0
0.6404 -0.649253  0
0.734518 -0.70352  0
0.817191 -0.731627  0
0.894247 -0.781542  0
0.983196 -0.791064  0
1.05467 -0.694775  0
1.08049 -0.627033  0
1.24468 -0.559997  0
1.44947 -0.223767  0
1.49799 -0.204611  0
1.54551 -0.165014  0
0.792553 -0.165014  0
0 0  0
0 0  0
0 0  0
0 0  0
0 0  0
0 0  0
0 0  0
0 0  0
0 0  0
0 0  0
0 0  0
0 0  0
0 0  0
0 0  0
0 0  0
0 0  0
0 0  0
0 0  0
0 0  0
0 0  0
0 0  0
0 0  0
0 0  0
0 0  0
0 0  0
0 0  0
0 0  0
0 0  0
0 0  0
0 0  0
0 0  0
0.0396105 -0.580604  0
0.119157 -0.587318  0
0.199664 -0.599925  0
0.284606 -0.624612  0
0.376622 -0.650199  0
0.454293 -0.646865  0
0.520352 -0.684352  0
0.595744 -0.735076  0
0.677237 -0.795811  0
0.746494 -0.793144  0
0.782038 -0.833892  0
0.79046 -0.837357  0
0.888695 -0.778975  0
1.03371 -0.313516  0
0.540245 -0.313516  0
0 0  0
0 0  0
0 0  0
0 0  0
0 0  0
0 0  0
0 0  0
0 0  0
0 0  0
0 0  0
0 0  0
0 0  0
0 0  0
0 0  0
0 0  0
0 0  0
0 0  0
0 0  0
0 0  0
0 0  0
0 0  0
0 0  0
0 0  0
0 0  0
0 0  0
0 0  0
0 0  0
0 0  0
0 0  0
0 0  0
0 0  0
0 0  0
0 0  0
0 0  0
0 0  0
0.0384083 -0.659905  0
0.114836 -0.666582  0
0.191608 -0.680486  0
0.271952 -0.711848  0
0.35985 -0.745412  0
0.439823 -0.711184  0
0.491673 -0.739192  0
0.546352 -0.811553  0
0.582847 -0.838576  0
0.689256 -0.829421  0
0.790583 -0.421157  0
0.787981 -0.418678  0
0.39523 -0.418678  0
0 0  0
0 0  0
0 0  0
0 0  0
0 0  0
0 0  0
0 0  0
0 0  0
0 0  0
0 0  0
0 0  0
0 0  0
0 0  0
0 0  0
0 0  0
0 0  0
0 0  0
0 0  0
0 0  0
0 0  0
0 0  0
0 0  0
0 0  0
0 0  0
0 0  0
0 0  0
0 0  0
0 0  0
0 0  0
0 0  0
0 0  0
0 0  0
0 0  0
0 0  0
0 0  0
0 0  0
0 0  0
0.0367284 -0.735674  0
0.112374 -0.744169  0
0.180433 -0.749001  0
0.237607 -0.782111  0
0.265639 -0.792345  0
0.375827 -0.768597  0
0.543272 -0.378688  0
0.586952 -0.424024  0
0.578111 -0.419288  0
0.291424 -0.419288  0
0 0  0
0 0  0
0 0  0
0 0  0
0 0  0
0 0  0
0 0  0
0 0  0
0 0  0
0 0  0
0 0  0
0 0  0
0 0  0
0 0  0
0 0  0
0 0  0
0 0  0
0 0  0
0 0  0
0 0  0
0 0  0
0 0  0
0 0  0
0 0  0
0 0  0
0 0  0
0 0  0
0 0  0
0 0  0
0 0  0
0 0  0
0 0  0
0 0  0
0 0  0
0 0  0
0 0  0
0 0  0
0 0  0
0 0  0
0 0  0
0.0420706 -0.386201  0
0.115244 -0.391543  0
0.193961 -0.389071  0
0.244708 -0.405071  0
0.25674 -0.396172  0
0.13282 -0.396172  0
0 0  0
0 0  0
0 0  0
0 0  0
0 0  0
0 0  0
0 0  0
0 0  0
0 0  0
0 0  0
0 0  0
0 0  0
0 0  0
0 0  0
0 0  0
0 0  0
0 0  0
0 0  0
0 0  0
0 0  0
0 0  0
0 0  0
0 0  0
0 0  0
0 0  0
0 0  0
0 0  0
0 0  0
0 0  0
0 0  0
0 0  0
0 0  0
0 0  0
0 0  0
0 0  0
0 0  0
0 0  0
0 0  0
0 0  0
0 0  0
0 0  0
0 0  0
0 0  0
0 0  0
0 0  0
0 0  0
0 0  0
0 0  0
0 0  0
0 0  0
0 0  0
0 0  0
0 0  0
0 0  0
0 0  0
0 0  0
0 0  0
0 0  0
0 0  0
0 0  0
0 0  0
0 0  0
0 0  0
0 0  0
0 0  0
0 0  0
0 0  0
0 0  0
0 0  0
0 0  0
0 0  0
0 0  0
0 0  0
0 0  0
0 0  0
0 0  0
0 0  0
0 0  0
0 0  0
0 0  0
0 0  0
0 0  0
0 0  0
0 0  0
0 0  0
0 0  0
0 0  0
0 0  0
0 0  0
0 0  0
0 0  0
0 0  0
0 0  0
0 0  0
0 0  0
0 0  0
0 0  0
0 0  0
0 0  0
0 0  0
0 0  0
0 0  0
0 0  0
0 0  0
0 0  0
0 0  0
0 0  0
0 0  0
0 0  0
0 0  0
0 0  0
0 0  0
0 0  0
0 0  0
0 0  0
0 0  0
0 0  0
0 0  0
0 0  0
0 0  0
0 0  0
0 0  0
0 0  0
0 0  0
0 0  0
0 0  0
0 0  0
0 0  0
0 0  0
0 0  0
0 0  0
0 0  0
0 0  0
0 0  0
0 0  0
0 0  0
0 0  0
0 0  0
0 0  0
0 0  0
0 0  0
0 0  0
0 0  0
0 0  0
0 0  0
0 0  0
0 0  0
0 0  0
0 0  0
0 0  0
0 0  0
0 0  0
0 0  0
0 0  0
0 0  0
0 0  0
0 0  0
0 0  0
0 0  0
0 0  0
0 0  0
0 0  0
0 0  0
0 0  0
0 0  0
0 0  0
0 0  0
0 0  0
0 0  0
0 0  0
0 0  0
0 0  0
0 0  0
0 0  0
0 0  0
0 0  0
0 0  0
0 0  0
0 0  0
0 0  0
0 0  0
0 0  0
0 0  0
0 0  0
0 0  0
0 0  0
0 0  0
0 0  0
0 0  0
0 0  0
0 0  0
0 0  0
0 0  0
0 0  0
0 0  0
0 0  0
0 0  0
0 0  0
0 0  0
0 0  0
0 0  0
0 0  0
0 0  0
0 0  0
0 0  0
0 0  0
0 0  0
0 0  0
0 0  0
0 0  0
0 0  0
0 0  0
0 0  0
0 0  0
0 0  0
0 0  0
0 0  0
0 0  0
0 0  0
0 0  0
0 0  0
0 0  0
0 0  0
0 0  0
0 0  0
0 0  0
0 0  0
0 0  0
0 0  0
0 0  0
0 0  0
0 0  0
0 0  0
0 0  0
0 0  0
0 0  0
0 0  0
0 0  0
0 0  0
0 0  0
0 0  0
0 0  0
0 0  0
0 0  0
0 0  0
0 0  0
0 0  0
0 0  0
0 0  0
0 0  0
0 0  0
0 0  0
0 0  0
0 0  0
0 0  0
0 0  0
0 0  0
0 0  0
0 0  0
0 0  0
0 0  0
0 0  0
0 0  0
0 0  0
0 0  0
0 0  0
0 0  0
0 0  0
0 0  0
0 0  0
0 0  0
0 0  0
0 0  0
0 0  0
0 0  0
0 0  0
0 0  0
0 0  0
0 0  0
0 0  0
0 0  0
0 0  0
0 0  0
0 0  0
0 0  0
0 0  0
0 0  0
0 0  0
0 0  0
0 0  0
0 0  0
0 0  0
0 0  0
0 0  0
0 0  0
0 0  0
0 0  0
0 0  0
0 0  0
0 0  0
0 0  0
0 0  0
0 0  0
0 0  0
0 0  0
0 0  0
0 0  0
0 0  0
0 0  0
0 0  0
0 0  0
0 0  0
0 0  0
0 0  0
0 0  0
0 0  0
0 0  0
0 0  0
0 0  0
0 0  0
0 0  0
0 0  0
0 0  0
0 0  0
0 0  0
0 0  0
0 0  0
0 0  0
0 0  0
0 0  0
0 0  0
0 0  0
0 0  0
0 0  0
0 0  0
0 0  0
0 0  0
0 0  0
0 0  0
0 0  0
0 0  0
0 0  0
0 0  0
0 0  0
0 0  0
0 0  0
0 0  0
0 0  0
0 0  0
0 0  0
0 0  0
0 0  0
0 0  0
0 0  0
0 0  0
0 0  0
0 0  0
0 0  0
0 0  0
0 0  0
0 0  0
0 0  0
0 0  0
0 0  0
0 0  0
0 0  0
0 0  0
0 0  0
0 0  0
0 0  0
0 0  0
0 0  0
0 0  0
0 0  0
0 0  0
0 0  0
0 0  0
0 0  0
0 0  0
0 0  0
0 0  0
0 0  0
0 0  0
0 0  0
0 0  0
0 0  0
0 0  0
0 0  0
0 0  0
0 0  0
0 0  0
0 0  0
0 0  0
0 0  0
0 0  0
0 0  0
0 0  0
0 0  0
0 0  0
0 0  0
0 0  0
0 0  0
0 0  0
0 0  0
0 0  0
0 0  0
0 0  0
0 0  0
0 0  0
0 0  0
0 0  0
0 0  0
0 0  0
0 0  0
0 0  0
0 0  0
0 0  0
0 0  0
0 0  0
0 0  0
0 0  0
0 0  0
0 0  0
0 0  0
0 0  0
0 0  0
0 0  0
0 0  0
0 0  0
0 0  0
0 0  0
0 0  0
0 0  0
0 0  0
0 0  0
0 0  0
0 0  0
0 0  0
0 0  0
0 0  0
0 0  0
0 0  0
0 0  0
0 0  0
0 0  0
0 0  0
0 0  0
0 0  0
0 0  0
0 0  0
0 0  0
0 0  0
0 0  0
0 0  0
0 0  0
0 0  0
0 0  0
0 0  0
0 0  0
0 0  0
0 0  0
0 0  0
0 0  0
0 0  0
0 0  0
0 0  0
0 0  0
0 0  0
0 0  0
0 0  0
0 0  0
0 0  0
0 0  0
0 0  0
0 0  0
0 0  0
0 0  0
0 0  0
0 0  0
0 0  0
0 0  0
0 0  0
0 0  0
0 0  0
0 0  0
0 0  0
0 0  0
0 0  0
0 0  0
0 0  0
0 0  0
0 0  0
0 0  0
0 0  0
0 0  0
0 0  0
0 0  0
0 0  0
0 0  0
0 0  0
0 0  0
0 0  0
0 0  0
0 0  0
0 0  0
0 0  0
0 0  0
0 0  0
0 0  0
0 0  0
0 0  0
0 0  0
0 0  0
0 0  0
0 0  0
0 0  0
0 0  0
0 0  0
0 0  0
0 0  0
0 0  0
0 0  0
0 0  0
0 0  0
0 0  0
0 0  0
0 0  0
0 0  0
0 0  0
0 0  0
0 0  0
0 0  0
0 0  0
0 0  0
0 0  0
0 0  0
0 0  0
0 0  0
0 0  0
0 0  0
0 0  0
0 0  0
0 0  0
0 0  0

SCALARS pressure double 1
LOOKUP_TABLE default
2.41804
2.41553
2.40316
2.38357
2.3618
2.32917
2.287
2.2339
2.16788
2.0836
1.97743
1.84834
1.6997
1.5395
1.37849
1.22833
1.09144
0.968339
0.862294
0.778713
0.713145
0.65571
0.597123
0.531832
0.460916
0.388367
0.298237
0.173403
0
0
0
0
0
0
0
0
0
0
0
0
0
0
0
0
0
0
0
0
0
0
2.19225
2.18378
2.1712
2.15553
2.12689
2.09209
2.04774
1.99242
1.92289
1.83537
1.72598
1.59261
1.43892
1.27548
1.11425
0.969825
0.839445
0.720535
0.613614
0.539746
0.485286
0.438478
0.386858
0.320679
0.246252
0.189893
0.116093
0
-0.0161625
0
0
0
0
0
0
0
0
0
0
0
0
0
0
0
0
0
0
0
0
0
1.93268
1.92771
1.91636
1.89348
1.86205
1.82213
1.77328
1.71345
1.63871
1.54538
1.42963
1.28844
1.12546
0.955126
0.790583
0.660478
0.547609
0.433435
0.316511
0.264359
0.231903
0.208755
0.178641
0.10846
-0.000858946
-0.00441941
-0.0408305
0
0
0
0
0
0
0
0
0
0
0
0
0
0
0
0
0
0
0
0
0
0
0
1.65135
1.64601
1.63111
1.60399
1.56715
1.52038
1.46508
1.39893
1.317
1.21548
1.09239
0.941471
0.765173
0.586185
0.404741
0.310912
0.235223
0.134276
-0.0514585
-0.0379322
-0.0422808
-0.0280566
0
-0.06075
0
0
0
0
0
0
0
0
0
0
0
0
0
0
0
0
0
0
0
0
0
0
0
0
0
0
1.34751
1.34087
1.32134
1.29036
1.24497
1.18818
1.12544
1.05326
0.962191
0.847969
0.721813
0.565306
0.369436
0.196031
-0.0712821
-0.0645366
-0.0651942
-0.082543
0
0
0
0
0
0
0
0
0
0
0
0
0
0
0
0
0
0
0
0
0
0
0
0
0
0
0
0
0
0
0
0
1.0218
1.01388
0.992614
0.956365
0.899748
0.825879
0.756554
0.68438
0.582958
0.441357
0.331076
0.191784
-0.0580593
-0.0928583
0
0
0
0
0
0
0
0
0
0
0
0
0
0
0
0
0
0
0
0
0
0
0
0
0
0
0
0
0
0
0
0
0
0
0
0
0.675706
0.667985
0.648105
0.610086
0.537934
0.425932
0.35606
0.307293
0.202671
-0.0272012
-0.0601112
-0.0783746
0
0
0
0
0
0
0
0
0
0
0
0
0
0
0
0
0
0
0
0
0
0
0
0
0
0
0
0
0
0
0
0
0
0
0
0
0
0
0.308294
0.305108
0.291302
0.266217
0.182032
-0.0387002
-0.0907647
-0.0397089
-0.0772255
0
0
0
0
0
0
0
0
0
0
0
0
0
0
0
0
0
0
0
0
0
0
0
0
0
0
0
0
0
0
0
0
0
0
0
0
0
0
0
0
0
-0.0773997
-0.0689397
-0.0769043
-0.0415586
-0.0574527
0
0
0
0
0
0
0
0
0
0
0
0
0
0
0
0
0
0
0
0
0
0
0
0
0
0
0
0
0
0
0
0
0
0
0
0
0
0
0
0
0
0
0
0
0
0
0
0
0
0
0
0
0
0
0
0
0
0
0
0
0
0
0
0
0
0
0
0
0
0
0
0
0
0
0
0
0
0
0
0
0
0
0
0
0
0
0
0
0
0
0
0
0
0
0
0
0
0
0
0
0
0
0
0
0
0
0
0
0
0
0
0
0
0
0
0
0
0
0
0
0
0
0
0
0
0
0
0
0
0
0
0
0
0
0
0
0
0
0
0
0
0
0
0
0
0
0
0
0
0
0
0
0
0
0
0
0
0
0
0
0
0
0
0
0
0
0
0
0
0
0
0
0
0
0
0
0
0
0
0
0
0
0
0
0
0
0
0
0
0
0
0
0
0
0
0
0
0
0
0
0
0
0
0
0
0
0
0
0
0
0
0
0
0
0
0
0
0
0
0
0
0
0
0
0
0
0
0
0
0
0
0
0
0
0
0
0
0
0
0
0
0
0
0
0
0
0
0
0
0
0
0
0
0
0
0
0
0
0
0
0
0
0
0
0
0
0
0
0
0
0
0
0
0
0
0
0
0
0
0
0
0
0
0
0
0
0
0
0
0
0
0
0
0
0
0
0
0
0
0
0
0
0
0
0
0
0
0
0
0
0
0
0
0
0
0
0
0
0
0
0
0
0
0
0
0
0
0
0
0
0
0
0
0
0
0
0
0
0
0
0
0
0
0
0
0
0
0
0
0
0
0
0
0
0
0
0
0
0
0
0
0
0
0
0
0
0
0
0
0
0
0
0
0
0
0
0
0
0
0
0
0
0
0
0
0
0
0
0
0
0
0
0
0
0
0
0
0
0
0
0
0
0
0
0
0
0
0
0
0
0
0
0
0
0
0
0
0
0
0
0
0
0
0
0
0
0
0
0
0
0
0
0
0
0
0
0
0
0
0
0
0
0
0
0
0
0
0
0
0
0
0
0
0
0
0
0
0
0
0
0
0
0
0
0
0
0
0
0
0
0
0
0
0
0
0
0
0
0
0
0
0
0
0
0
0
0
0
0
0
0
0
0
0
0
0
0
0
0
0
0
0
0
0
0
0
0
0
0
0
0
0
0
0
0
0
0
0
0
0
0
0
0
0
0
0
0
0
0
0
0
0
0
0
0
0
0
0
0
0
0
0
0
0
0
0
0
0
0
0
0
0
0
0
0
0
0
0
0
0
0
0
0
0
0
0
0
0
0
0
0
0
0
0
0
0
0
0
0
0
0
0
0
0
0
0
0
0
0
0
0
0
0
0
0
SCALARS rhs double 1
LOOKUP_TABLE default
-5.81813
-6.01516
-6.01006
-5.83637
-6.10305
-6.23369
-6.25538
-6.39137
-6.6019
-6.77029
-6.88027
-6.90373
-6.82123
-6.64409
-6.3852
-6.1467
-5.96778
-5.81435
-5.62961
-5.52476
-5.5315
-5.44462
-5.42157
-5.42416
-5.4048
-5.40469
-5.42126
-5.54935
1.68134
0
0
0
0
0
0
0
0
0
0
0
0
0
0
0
0
0
0
0
0
0
-0.997977
-0.810962
-0.676138
-1.08947
-0.997841
-1.00581
-1.18016
-1.29497
-1.4276
-1.59915
-1.71959
-1.71652
-1.56711
-1.36125
-1.08295
-0.875049
-0.764134
-0.590333
-0.460831
-0.40892
-0.404618
-0.459992
-0.31167
-0.228217
-0.361545
-0.327604
-0.426958
1.68134
0.159925
0
0
0
0
0
0
0
0
0
0
0
0
0
0
0
0
0
0
0
0
0
-0.747521
-0.754078
-1.02796
-0.93157
-0.944156
-1.02812
-1.11948
-1.26037
-1.40527
-1.56086
-1.66033
-1.60721
-1.35828
-1.0765
-0.690397
-0.556206
-0.545151
-0.39075
-0.10337
-0.201246
-0.287973
-0.33967
-0.265644
0.0964363
6.0062
2.94783
0.739714
0
0
0
0
0
0
0
0
0
0
0
0
0
0
0
0
0
0
0
0
0
0
0
-0.715808
-0.841379
-0.89213
-0.874273
-0.910863
-0.981521
-1.06036
-1.16889
-1.3215
-1.47615
-1.52759
-1.36095
-0.954922
-0.594976
-0.0455687
-0.198464
-0.319597
-0.066674
21.4274
15.0436
10.7881
6.0062
2.94783
0.159925
0
0
0
0
0
0
0
0
0
0
0
0
0
0
0
0
0
0
0
0
0
0
0
0
0
0
-0.7148
-0.865592
-0.784369
-0.851407
-0.871405
-0.901713
-0.967222
-1.05005
-1.18901
-1.27009
-1.25821
-0.920481
-0.22768
0.188397
37.5733
28.8973
16.9453
9.3674
0
0
0
0
0
0
0
0
0
0
0
0
0
0
0
0
0
0
0
0
0
0
0
0
0
0
0
0
0
0
0
0
-0.722483
-0.791103
-0.778069
-0.809912
-0.849994
-0.828264
-0.858862
-0.93379
-1.02595
-0.762907
-0.736381
-0.17815
10.8141
33.6353
0
0
0
0
0
0
0
0
0
0
0
0
0
0
0
0
0
0
0
0
0
0
0
0
0
0
0
0
0
0
0
0
0
0
0
0
-0.728556
-0.732984
-0.755454
-0.792089
-0.847094
-0.560972
-0.626476
-0.640387
-0.619009
0.472995
3.40323
14.9142
26.3021
0
0
0
0
0
0
0
0
0
0
0
0
0
0
0
0
0
0
0
0
0
0
0
0
0
0
0
0
0
0
0
0
0
0
0
0
0
-0.534908
-0.547516
-0.56208
-0.574996
-0.499705
0.494691
1.67764
4.56897
8.07155
8.9678
11.6117
27.2717
0
0
0
0
0
0
0
0
0
0
0
0
0
0
0
0
0
0
0
0
0
0
0
0
0
0
0
0
0
0
0
0
0
0
0
0
0
0
3.03336
3.17133
4.59131
4.70492
6.43299
7.47839
9.23983
7.89527
5.98596
8.49533
41.2731
0
0
0
0
0
0
0
0
0
0
0
0
0
0
0
0
0
0
0
0
0
0
0
0
0
0
0
0
0
0
0
0
0
0
0
0
0
0
0
9.36633
9.33066
8.04142
9.25902
7.69325
7.78758
9.09454
10.208
11.1703
21.7759
3.2041
0
0
0
0
0
0
0
0
0
0
0
0
0
0
0
0
0
0
0
0
0
0
0
0
0
0
0
0
0
0
0
0
0
0
0
0
0
0
0
7.92952
10.0992
10.1145
8.86149
11.2589
12.4355
10.8064
8.57914
8.60392
43.2779
0
0
0
0
0
0
0
0
0
0
0
0
0
0
0
0
0
0
0
0
0
0
0
0
0
0
0
0
0
0
0
0
0
0
0
0
0
0
0
0
13.2058
10.8439
11.0393
13.0106
10.7272
10.2862
9.48307
9.57063
8.67562
33.2233
0
0
0
0
0
0
0
0
0
0
0
0
0
0
0
0
0
0
0
0
0
0
0
0
0
0
0
0
0
0
0
0
0
0
0
0
0
0
0
0
8.71388
9.82855
9.83715
7.65861
8.9401
7.02241
6.34758
6.44313
5.90605
26.1906
0
0
0
0
0
0
0
0
0
0
0
0
0
0
0
0
0
0
0
0
0
0
0
0
0
0
0
0
0
0
0
0
0
0
0
0
0
0
0
0
7.061
5.55892
5.71513
6.83869
5.56628
5.6724
5.42452
5.43401
4.26976
17.1298
0
0
0
0
0
0
0
0
0
0
0
0
0
0
0
0
0
0
0
0
0
0
0
0
0
0
0
0
0
0
0
0
0
0
0
0
0
0
0
0
6.55202
6.55536
6.55982
5.31204
5.40986
6.30896
5.08555
5.09432
5.2091
10.3371
0
0
0
0
0
0
0
0
0
0
0
0
0
0
0
0
0
0
0
0
0
0
0
0
0
0
0
0
0
0
0
0
0
0
0
0
0
0
0
0
5.52783
5.53996
5.54196
5.54121
5.54439
4.52522
5.16545
5.22779
16.4546
0
0
0
0
0
0
0
0
0
0
0
0
0
0
0
0
0
0
0
0
0
0
0
0
0
0
0
0
0
0
0
0
0
0
0
0
0
0
0
0
0
3.60674
3.66202
3.98033
3.98143
3.98244
3.98396
3.23505
3.31189
11.5415
0
0
0
0
0
0
0
0
0
0
0
0
0
0
0
0
0
0
0
0
0
0
0
0
0
0
0
0
0
0
0
0
0
0
0
0
0
0
0
0
0
6.01719
6.36025
5.75447
5.75462
5.75506
5.75536
5.75588
5.76119
8.30564
0
0
0
0
0
0
0
0
0
0
0
0
0
0
0
0
0
0
0
0
0
0
0
0
0
0
0
0
0
0
0
0
0
0
0
0
0
0
0
0
0
3.29611
2.74112
2.74112
2.74112
2.74112
2.74112
2.74112
2.74112
2.74112
0
0
0
0
0
0
0
0
0
0
0
0
0
0
0
0
0
0
0
0
0
0
0
0
0
0
0
0
0
0
0
0
0
0
0
0
0
0
0
0
0
0
0
0
0
0
0
0
0
0
0
0
0
0
0
0
0
0
0
0
0
0
0
0
0
0
0
0
0
0
0
0
0
0
0
0
0
0
0
0
0
0
0
0
0
0
0
0
0
0
0
