# vtk DataFile Version 4.0
Nusif Fluid VTK output
ASCII
DATASET STRUCTURED_POINTS
DIMENSIONS 50 20 1
ORIGIN 0 0 0 
SPACING 0.2 0.2 1
POINT_DATA 1000 

VECTORS velocity double
0.0433742 -0.045977  0
0.130606 -0.0464075  0
0.21912 -0.0472034  0
0.309608 -0.0484238  0
0.403032 -0.0499529  0
0.500041 -0.0521153  0
0.601729 -0.0546824  0
0.709411 -0.05802  0
0.824313 -0.0617609  0
0.94725 -0.0658626  0
1.0781 -0.069946  0
1.21607 -0.0729424  0
1.35795 -0.0737647  0
1.49815 -0.0713722  0
1.63031 -0.0658091  0
1.75049 -0.0593705  0
1.85832 -0.0534596  0
1.95446 -0.0477491  0
2.03855 -0.0414044  0
2.10994 -0.0350467  0
2.16955 -0.0296737  0
2.21998 -0.0259931  0
2.265 -0.0242282  0
2.30828 -0.0241677  0
2.35113 -0.0237206  0
2.38813 -0.01842  0
2.41093 -0.00957681  0
2.42253 -0.00709365  0
2.43358 -0.00905144  0
2.4423 -0.00479393  0
2.42781 0.0141728  0
2.38785 0.0206675  0
2.36462 0  0
1.18231 0  0
0 0  0
0 0  0
0 0  0
0 0  0
0 0  0
0 0  0
0 0  0
0 0  0
0 0  0
0 0  0
0 0  0
0 0  0
0 0  0
0 0  0
0 0  0
0 0  0
0.0430701 -0.137574  0
0.129652 -0.138854  0
0.217465 -0.141291  0
0.307298 -0.144844  0
0.399714 -0.149476  0
0.495483 -0.155613  0
0.595566 -0.163194  0
0.701164 -0.172821  0
0.813512 -0.183946  0
0.93293 -0.195992  0
1.05971 -0.207541  0
1.19336 -0.216894  0
1.33132 -0.219666  0
1.46788 -0.212306  0
1.59478 -0.194105  0
1.70787 -0.174451  0
1.80909 -0.157585  0
1.90014 -0.141  0
1.98002 -0.122329  0
2.04773 -0.10345  0
2.10451 -0.0879128  0
2.1528 -0.0769681  0
2.1963 -0.0719139  0
2.23924 -0.0728918  0
2.28424 -0.073164  0
2.32735 -0.0592282  0
2.35495 -0.0294651  0
2.36781 -0.0219159  0
2.38229 -0.0299922  0
2.40508 -0.0256052  0
2.42086 0.0260234  0
2.42318 0.041335  0
2.3939 0.0206675  0
1.18231 0  0
0 0  0
0 0  0
0 0  0
0 0  0
0 0  0
0 0  0
0 0  0
0 0  0
0 0  0
0 0  0
0 0  0
0 0  0
0 0  0
0 0  0
0 0  0
0 0  0
0.0424642 -0.228214  0
0.127829 -0.230382  0
0.214463 -0.234425  0
0.302993 -0.240147  0
0.393767 -0.247695  0
0.487367 -0.257057  0
0.584393 -0.269034  0
0.685918 -0.284174  0
0.79309 -0.302013  0
0.90597 -0.320728  0
1.02343 -0.337271  0
1.14611 -0.353543  0
1.27464 -0.359925  0
1.40354 -0.347769  0
1.52027 -0.31252  0
1.62067 -0.279834  0
1.7128 -0.255874  0
1.79595 -0.227179  0
1.86971 -0.20004  0
1.93528 -0.169314  0
1.99149 -0.145371  0
2.04117 -0.127776  0
2.08577 -0.119273  0
2.12848 -0.12138  0
2.17399 -0.125572  0
2.22237 -0.108481  0
2.2603 -0.0533557  0
2.28709 -0.0428524  0
2.30716 -0.0487466  0
2.31403 -0.0416225  0
2.35979 -0.00896072  0
2.41437 0.0206675  0
1.21159 0.0206675  0
0 0  0
0 0  0
0 0  0
0 0  0
0 0  0
0 0  0
0 0  0
0 0  0
0 0  0
0 0  0
0 0  0
0 0  0
0 0  0
0 0  0
0 0  0
0 0  0
0 0  0
0.0417149 -0.317511  0
0.125653 -0.320647  0
0.210959 -0.326281  0
0.297953 -0.333996  0
0.386848 -0.343823  0
0.477756 -0.355627  0
0.570562 -0.370435  0
0.666073 -0.389909  0
0.765905 -0.413521  0
0.87003 -0.436555  0
0.972294 -0.451336  0
1.07416 -0.474278  0
1.1849 -0.488849  0
1.30114 -0.474272  0
1.40402 -0.415859  0
1.49178 -0.374975  0
1.57802 -0.349406  0
1.65754 -0.304043  0
1.73442 -0.278926  0
1.80867 -0.235375  0
1.87584 -0.207884  0
1.93677 -0.180905  0
1.9876 -0.166703  0
2.03477 -0.168962  0
2.06861 -0.162443  0
2.0788 -0.135346  0
2.1709 -0.101141  0
2.28143 -0.0280301  0
2.29994 -0.0278058  0
2.30703 -0.0208113  0
1.15701 -0.0208113  0
0 0  0
0 0  0
0 0  0
0 0  0
0 0  0
0 0  0
0 0  0
0 0  0
0 0  0
0 0  0
0 0  0
0 0  0
0 0  0
0 0  0
0 0  0
0 0  0
0 0  0
0 0  0
0 0  0
0.0409576 -0.405308  0
0.123479 -0.409534  0
0.207445 -0.416834  0
0.292833 -0.426116  0
0.379729 -0.437749  0
0.468268 -0.451332  0
0.555729 -0.465184  0
0.642331 -0.487412  0
0.733008 -0.516897  0
0.828433 -0.542911  0
0.913015 -0.542099  0
0.988328 -0.571118  0
1.07166 -0.59629  0
1.16232 -0.584042  0
1.25752 -0.511894  0
1.34008 -0.454388  0
1.37403 -0.395315  0
1.52357 -0.367773  0
1.69877 -0.159811  0
1.76961 -0.134464  0
1.84548 -0.120752  0
1.91113 -0.104104  0
1.9798 -0.0951149  0
2.02597 -0.0963065  0
2.03998 -0.0863143  0
2.06015 -0.0676731  0
1.0394 -0.0676731  0
0 0  0
0 0  0
0 0  0
0 0  0
0 0  0
0 0  0
0 0  0
0 0  0
0 0  0
0 0  0
0 0  0
0 0  0
0 0  0
0 0  0
0 0  0
0 0  0
0 0  0
0 0  0
0 0  0
0 0  0
0 0  0
0 0  0
0 0  0
0.0402252 -0.491612  0
0.121345 -0.497086  0
0.203273 -0.505396  0
0.286195 -0.516132  0
0.370875 -0.529549  0
0.458099 -0.545509  0
0.538205 -0.548781  0
0.611717 -0.574184  0
0.690217 -0.609631  0
0.772592 -0.638184  0
0.854515 -0.621088  0
0.915628 -0.633766  0
0.966188 -0.67259  0
0.995848 -0.633211  0
1.1149 -0.596863  0
1.25748 -0.244166  0
1.32752 -0.197657  0
0.687014 -0.197657  0
0 0  0
0 0  0
0 0  0
0 0  0
0 0  0
0 0  0
0 0  0
0 0  0
0 0  0
0 0  0
0 0  0
0 0  0
0 0  0
0 0  0
0 0  0
0 0  0
0 0  0
0 0  0
0 0  0
0 0  0
0 0  0
0 0  0
0 0  0
0 0  0
0 0  0
0 0  0
0 0  0
0 0  0
0 0  0
0 0  0
0 0  0
0 0  0
0.0399038 -0.576857  0
0.119099 -0.582375  0
0.198086 -0.591281  0
0.275915 -0.60125  0
0.353678 -0.617101  0
0.434255 -0.635994  0
0.511967 -0.623783  0
0.580146 -0.646031  0
0.63784 -0.679132  0
0.664119 -0.682458  0
0.776107 -0.671878  0
0.936103 -0.327334  0
0.955461 -0.351125  0
0.961329 -0.316606  0
0.497924 -0.316606  0
0 0  0
0 0  0
0 0  0
0 0  0
0 0  0
0 0  0
0 0  0
0 0  0
0 0  0
0 0  0
0 0  0
0 0  0
0 0  0
0 0  0
0 0  0
0 0  0
0 0  0
0 0  0
0 0  0
0 0  0
0 0  0
0 0  0
0 0  0
0 0  0
0 0  0
0 0  0
0 0  0
0 0  0
0 0  0
0 0  0
0 0  0
0 0  0
0 0  0
0 0  0
0 0  0
0.0378499 -0.657168  0
0.12078 -0.669305  0
0.193073 -0.660763  0
0.261563 -0.683206  0
0.319634 -0.676093  0
0.336428 -0.679499  0
0.451029 -0.670023  0
0.602578 -0.338723  0
0.640346 -0.352706  0
0.652642 -0.341229  0
0.332059 -0.341229  0
0 0  0
0 0  0
0 0  0
0 0  0
0 0  0
0 0  0
0 0  0
0 0  0
0 0  0
0 0  0
0 0  0
0 0  0
0 0  0
0 0  0
0 0  0
0 0  0
0 0  0
0 0  0
0 0  0
0 0  0
0 0  0
0 0  0
0 0  0
0 0  0
0 0  0
0 0  0
0 0  0
0 0  0
0 0  0
0 0  0
0 0  0
0 0  0
0 0  0
0 0  0
0 0  0
0 0  0
0 0  0
0 0  0
0 0  0
0.0475338 -0.347509  0
0.117259 -0.357193  0
0.198122 -0.343988  0
0.264019 -0.362242  0
0.297142 -0.346443  0
0.329734 -0.33975  0
0.168214 -0.33975  0
0 0  0
0 0  0
0 0  0
0 0  0
0 0  0
0 0  0
0 0  0
0 0  0
0 0  0
0 0  0
0 0  0
0 0  0
0 0  0
0 0  0
0 0  0
0 0  0
0 0  0
0 0  0
0 0  0
0 0  0
0 0  0
0 0  0
0 0  0
0 0  0
0 0  0
0 0  0
0 0  0
0 0  0
0 0  0
0 0  0
0 0  0
0 0  0
0 0  0
0 0  0
0 0  0
0 0  0
0 0  0
0 0  0
0 0  0
0 0  0
0 0  0
0 0  0
0 0  0
0 0  0
0 0  0
0 0  0
0 0  0
0 0  0
0 0  0
0 0  0
0 0  0
0 0  0
0 0  0
0 0  0
0 0  0
0 0  0
0 0  0
0 0  0
0 0  0
0 0  0
0 0  0
0 0  0
0 0  0
0 0  0
0 0  0
0 0  0
0 0  0
0 0  0
0 0  0
0 0  0
0 0  0
0 0  0
0 0  0
0 0  0
0 0  0
0 0  0
0 0  0
0 0  0
0 0  0
0 0  0
0 0  0
0 0  0
0 0  0
0 0  0
0 0  0
0 0  0
0 0  0
0 0  0
0 0  0
0 0  0
0 0  0
0 0  0
0 0  0
0 0  0
0 0  0
0 0  0
0 0  0
0 0  0
0 0  0
0 0  0
0 0  0
0 0  0
0 0  0
0 0  0
0 0  0
0 0  0
0 0  0
0 0  0
0 0  0
0 0  0
0 0  0
0 0  0
0 0  0
0 0  0
0 0  0
0 0  0
0 0  0
0 0  0
0 0  0
0 0  0
0 0  0
0 0  0
0 0  0
0 0  0
0 0  0
0 0  0
0 0  0
0 0  0
0 0  0
0 0  0
0 0  0
0 0  0
0 0  0
0 0  0
0 0  0
0 0  0
0 0  0
0 0  0
0 0  0
0 0  0
0 0  0
0 0  0
0 0  0
0 0  0
0 0  0
0 0  0
0 0  0
0 0  0
0 0  0
0 0  0
0 0  0
0 0  0
0 0  0
0 0  0
0 0  0
0 0  0
0 0  0
0 0  0
0 0  0
0 0  0
0 0  0
0 0  0
0 0  0
0 0  0
0 0  0
0 0  0
0 0  0
0 0  0
0 0  0
0 0  0
0 0  0
0 0  0
0 0  0
0 0  0
0 0  0
0 0  0
0 0  0
0 0  0
0 0  0
0 0  0
0 0  0
0 0  0
0 0  0
0 0  0
0 0  0
0 0  0
0 0  0
0 0  0
0 0  0
0 0  0
0 0  0
0 0  0
0 0  0
0 0  0
0 0  0
0 0  0
0 0  0
0 0  0
0 0  0
0 0  0
0 0  0
0 0  0
0 0  0
0 0  0
0 0  0
0 0  0
0 0  0
0 0  0
0 0  0
0 0  0
0 0  0
0 0  0
0 0  0
0 0  0
0 0  0
0 0  0
0 0  0
0 0  0
0 0  0
0 0  0
0 0  0
0 0  0
0 0  0
0 0  0
0 0  0
0 0  0
0 0  0
0 0  0
0 0  0
0 0  0
0 0  0
0 0  0
0 0  0
0 0  0
0 0  0
0 0  0
0 0  0
0 0  0
0 0  0
0 0  0
0 0  0
0 0  0
0 0  0
0 0  0
0 0  0
0 0  0
0 0  0
0 0  0
0 0  0
0 0  0
0 0  0
0 0  0
0 0  0
0 0  0
0 0  0
0 0  0
0 0  0
0 0  0
0 0  0
0 0  0
0 0  0
0 0  0
0 0  0
0 0  0
0 0  0
0 0  0
0 0  0
0 0  0
0 0  0
0 0  0
0 0  0
0 0  0
0 0  0
0 0  0
0 0  0
0 0  0
0 0  0
0 0  0
0 0  0
0 0  0
0 0  0
0 0  0
0 0  0
0 0  0
0 0  0
0 0  0
0 0  0
0 0  0
0 0  0
0 0  0
0 0  0
0 0  0
0 0  0
0 0  0
0 0  0
0 0  0
0 0  0
0 0  0
0 0  0
0 0  0
0 0  0
0 0  0
0 0  0
0 0  0
0 0  0
0 0  0
0 0  0
0 0  0
0 0  0
0 0  0
0 0  0
0 0  0
0 0  0
0 0  0
0 0  0
0 0  0
0 0  0
0 0  0
0 0  0
0 0  0
0 0  0
0 0  0
0 0  0
0 0  0
0 0  0
0 0  0
0 0  0
0 0  0
0 0  0
0 0  0
0 0  0
0 0  0
0 0  0
0 0  0
0 0  0
0 0  0
0 0  0
0 0  0
0 0  0
0 0  0
0 0  0
0 0  0
0 0  0
0 0  0
0 0  0
0 0  0
0 0  0
0 0  0
0 0  0
0 0  0
0 0  0
0 0  0
0 0  0
0 0  0
0 0  0
0 0  0
0 0  0
0 0  0
0 0  0
0 0  0
0 0  0
0 0  0
0 0  0
0 0  0
0 0  0
0 0  0
0 0  0
0 0  0
0 0  0
0 0  0
0 0  0
0 0  0
0 0  0
0 0  0
0 0  0
0 0  0
0 0  0
0 0  0
0 0  0
0 0  0
0 0  0
0 0  0
0 0  0
0 0  0
0 0  0
0 0  0
0 0  0
0 0  0
0 0  0
0 0  0
0 0  0
0 0  0
0 0  0
0 0  0
0 0  0
0 0  0
0 0  0
0 0  0
0 0  0
0 0  0
0 0  0
0 0  0
0 0  0
0 0  0
0 0  0
0 0  0
0 0  0
0 0  0
0 0  0
0 0  0
0 0  0
0 0  0
0 0  0
0 0  0
0 0  0
0 0  0
0 0  0
0 0  0
0 0  0
0 0  0
0 0  0
0 0  0
0 0  0
0 0  0
0 0  0
0 0  0
0 0  0
0 0  0
0 0  0
0 0  0
0 0  0
0 0  0
0 0  0
0 0  0
0 0  0
0 0  0
0 0  0
0 0  0
0 0  0
0 0  0
0 0  0
0 0  0
0 0  0
0 0  0
0 0  0
0 0  0
0 0  0
0 0  0
0 0  0
0 0  0
0 0  0
0 0  0
0 0  0
0 0  0
0 0  0
0 0  0
0 0  0
0 0  0
0 0  0
0 0  0
0 0  0
0 0  0
0 0  0
0 0  0
0 0  0
0 0  0
0 0  0
0 0  0
0 0  0
0 0  0
0 0  0
0 0  0
0 0  0
0 0  0
0 0  0
0 0  0
0 0  0
0 0  0
0 0  0
0 0  0
0 0  0
0 0  0
0 0  0
0 0  0
0 0  0
0 0  0
0 0  0
0 0  0
0 0  0
0 0  0
0 0  0
0 0  0
0 0  0
0 0  0
0 0  0
0 0  0
0 0  0
0 0  0
0 0  0
0 0  0
0 0  0
0 0  0
0 0  0
0 0  0
0 0  0
0 0  0
0 0  0
0 0  0
0 0  0
0 0  0
0 0  0
0 0  0
0 0  0
0 0  0
0 0  0
0 0  0
0 0  0
0 0  0
0 0  0
0 0  0
0 0  0
0 0  0
0 0  0
0 0  0
0 0  0
0 0  0
0 0  0
0 0  0
0 0  0
0 0  0
0 0  0
0 0  0
0 0  0
0 0  0
0 0  0
0 0  0
0 0  0
0 0  0
0 0  0
0 0  0
0 0  0
0 0  0
0 0  0
0 0  0
0 0  0
0 0  0
0 0  0
0 0  0
0 0  0
0 0  0
0 0  0
0 0  0
0 0  0
0 0  0
0 0  0
0 0  0
0 0  0
0 0  0
0 0  0
0 0  0
0 0  0
0 0  0
0 0  0
0 0  0
0 0  0
0 0  0
0 0  0
0 0  0
0 0  0
0 0  0
0 0  0
0 0  0
0 0  0
0 0  0
0 0  0
0 0  0
0 0  0
0 0  0
0 0  0
0 0  0
0 0  0
0 0  0
0 0  0
0 0  0
0 0  0
0 0  0
0 0  0
0 0  0
0 0  0
0 0  0
0 0  0
0 0  0
0 0  0

SCALARS pressure double 1
LOOKUP_TABLE default
1.3963
1.39864
1.3966
1.39093
1.38325
1.37056
1.35592
1.33617
1.31189
1.27904
1.23695
1.18357
1.1156
1.03373
0.943208
0.852352
0.766294
0.689031
0.627391
0.582078
0.54935
0.524904
0.505797
0.484623
0.456156
0.420862
0.385059
0.358046
0.33278
0.306
0.292143
0.372818
0.632719
0
0
0
0
0
0
0
0
0
0
0
0
0
0
0
0
0
1.19414
1.19321
1.19036
1.18484
1.17426
1.16077
1.14301
1.1217
1.09374
1.05763
1.01416
0.958624
0.890244
0.807238
0.715783
0.626527
0.54173
0.46317
0.406879
0.368943
0.343518
0.326945
0.313008
0.295231
0.269673
0.231285
0.18466
0.165357
0.143696
0.102891
0.00396126
-0.0302246
0
0
0
0
0
0
0
0
0
0
0
0
0
0
0
0
0
0
0.985933
0.985211
0.981746
0.974083
0.961066
0.944253
0.921938
0.896073
0.863635
0.823035
0.77419
0.717546
0.649106
0.563944
0.468982
0.385396
0.303889
0.212098
0.170641
0.148555
0.138339
0.132082
0.127981
0.122878
0.10077
0.0620853
-0.0287838
-0.0149465
-0.0159562
-0.0315459
0
0
0
0
0
0
0
0
0
0
0
0
0
0
0
0
0
0
0
0
0.775379
0.774546
0.770143
0.760263
0.744724
0.722008
0.693533
0.662109
0.624875
0.577475
0.518628
0.46352
0.400804
0.311901
0.205158
0.140996
0.0752587
-0.0837837
-0.0730319
-0.0719666
-0.0584606
-0.0561743
-0.047187
-0.0251306
-0.0401779
-0.041504
0
0
0
0
0
0
0
0
0
0
0
0
0
0
0
0
0
0
0
0
0
0
0
0
0.563186
0.562178
0.557016
0.546297
0.52721
0.497168
0.457714
0.422216
0.383355
0.32654
0.245688
0.200194
0.162413
0.0715811
-0.0906207
-0.0936327
-0.0538322
0
0
0
0
0
0
0
0
0
0
0
0
0
0
0
0
0
0
0
0
0
0
0
0
0
0
0
0
0
0
0
0
0
0.349174
0.34899
0.34375
0.335252
0.313812
0.274378
0.210132
0.177397
0.149766
0.0882487
-0.0628571
-0.0758975
-0.0240701
-0.0835416
0
0
0
0
0
0
0
0
0
0
0
0
0
0
0
0
0
0
0
0
0
0
0
0
0
0
0
0
0
0
0
0
0
0
0
0
0.132809
0.135962
0.129399
0.132096
0.112958
0.0697737
-0.069224
-0.0729183
-0.0515906
-0.0589125
0
0
0
0
0
0
0
0
0
0
0
0
0
0
0
0
0
0
0
0
0
0
0
0
0
0
0
0
0
0
0
0
0
0
0
0
0
0
0
0
-0.0851031
-0.0664847
-0.0944684
-0.0474758
-0.0630197
-0.0363299
0
0
0
0
0
0
0
0
0
0
0
0
0
0
0
0
0
0
0
0
0
0
0
0
0
0
0
0
0
0
0
0
0
0
0
0
0
0
0
0
0
0
0
0
0
0
0
0
0
0
0
0
0
0
0
0
0
0
0
0
0
0
0
0
0
0
0
0
0
0
0
0
0
0
0
0
0
0
0
0
0
0
0
0
0
0
0
0
0
0
0
0
0
0
0
0
0
0
0
0
0
0
0
0
0
0
0
0
0
0
0
0
0
0
0
0
0
0
0
0
0
0
0
0
0
0
0
0
0
0
0
0
0
0
0
0
0
0
0
0
0
0
0
0
0
0
0
0
0
0
0
0
0
0
0
0
0
0
0
0
0
0
0
0
0
0
0
0
0
0
0
0
0
0
0
0
0
0
0
0
0
0
0
0
0
0
0
0
0
0
0
0
0
0
0
0
0
0
0
0
0
0
0
0
0
0
0
0
0
0
0
0
0
0
0
0
0
0
0
0
0
0
0
0
0
0
0
0
0
0
0
0
0
0
0
0
0
0
0
0
0
0
0
0
0
0
0
0
0
0
0
0
0
0
0
0
0
0
0
0
0
0
0
0
0
0
0
0
0
0
0
0
0
0
0
0
0
0
0
0
0
0
0
0
0
0
0
0
0
0
0
0
0
0
0
0
0
0
0
0
0
0
0
0
0
0
0
0
0
0
0
0
0
0
0
0
0
0
0
0
0
0
0
0
0
0
0
0
0
0
0
0
0
0
0
0
0
0
0
0
0
0
0
0
0
0
0
0
0
0
0
0
0
0
0
0
0
0
0
0
0
0
0
0
0
0
0
0
0
0
0
0
0
0
0
0
0
0
0
0
0
0
0
0
0
0
0
0
0
0
0
0
0
0
0
0
0
0
0
0
0
0
0
0
0
0
0
0
0
0
0
0
0
0
0
0
0
0
0
0
0
0
0
0
0
0
0
0
0
0
0
0
0
0
0
0
0
0
0
0
0
0
0
0
0
0
0
0
0
0
0
0
0
0
0
0
0
0
0
0
0
0
0
0
0
0
0
0
0
0
0
0
0
0
0
0
0
0
0
0
0
0
0
0
0
0
0
0
0
0
0
0
0
0
0
0
0
0
0
0
0
0
0
0
0
0
0
0
0
0
0
0
0
0
0
0
0
0
0
0
0
0
0
0
0
0
0
0
0
0
0
0
0
0
0
0
0
0
0
0
0
0
0
0
0
0
0
0
0
0
0
0
0
0
0
0
0
0
0
0
0
0
0
0
0
0
0
0
0
0
0
0
0
0
0
0
0
0
0
0
0
0
0
0
0
0
0
0
0
0
0
0
0
0
0
0
0
0
0
0
0
0
0
0
0
0
0
0
0
0
0
0
0
0
0
0
0
0
0
0
0
0
0
0
0
0
0
0
0
0
0
0
0
0
0
0
0
0
0
0
0
0
0
0
SCALARS rhs double 1
LOOKUP_TABLE default
-5.00622
-5.24329
-5.24321
-5.21084
-5.29986
-5.32864
-5.41348
-5.48717
-5.59544
-5.73064
-5.84703
-5.94307
-5.95295
-5.86239
-5.68532
-5.50488
-5.38484
-5.25257
-5.0956
-5.00789
-4.94143
-4.8417
-4.86781
-4.91875
-4.81117
-4.77801
-4.78401
-4.76719
-4.7658
-4.75452
-4.84129
-5.59536
0.639913
0
0
0
0
0
0
0
0
0
0
0
0
0
0
0
0
0
-0.171702
-0.104303
-0.131529
-0.219372
-0.21013
-0.258831
-0.310746
-0.400871
-0.480966
-0.5739
-0.67646
-0.749341
-0.754
-0.641524
-0.426198
-0.2711
-0.185836
-0.0633872
0.0502334
0.134742
0.228356
0.118351
0.168359
0.173627
0.134305
0.318479
0.347833
0.244356
0.258103
0.263797
1.14967
1.04349
0
0
0
0
0
0
0
0
0
0
0
0
0
0
0
0
0
0
-0.0760572
-0.142422
-0.169104
-0.19773
-0.201386
-0.250541
-0.283987
-0.345663
-0.428686
-0.500242
-0.557112
-0.627046
-0.615722
-0.448412
-0.150172
-0.0397807
-0.0288427
0.132566
0.305163
0.284849
0.298748
0.24884
0.190393
0.21303
0.258108
0.348628
1.02222
0.282506
0.857993
1.04349
0
0
0
0
0
0
0
0
0
0
0
0
0
0
0
0
0
0
0
0
-0.0622069
-0.130038
-0.165979
-0.162811
-0.193273
-0.214517
-0.246776
-0.286443
-0.349028
-0.38906
-0.36246
-0.425723
-0.410335
-0.160245
0.267797
0.203633
0.151837
0.902285
21.7099
15.3261
11.0706
6.2887
3.23034
0.442431
0.857993
1.04349
0
0
0
0
0
0
0
0
0
0
0
0
0
0
0
0
0
0
0
0
0
0
0
0
-0.0715107
-0.121194
-0.13872
-0.144222
-0.16521
-0.18611
-0.187006
-0.209864
-0.261956
-0.26494
-0.0450971
-0.110397
-0.0283821
0.337418
37.8558
29.1798
17.2278
9.00999
0
0
0
0
0
0
0
0
0
0
0
0
0
0
0
0
0
0
0
0
0
0
0
0
0
0
0
0
0
0
0
0
-0.0630676
-0.118961
-0.114359
-0.123499
-0.137051
-0.162296
-0.00799371
-0.0182776
-0.0414552
0.0381876
0.710111
0.527786
11.0966
33.9178
0
0
0
0
0
0
0
0
0
0
0
0
0
0
0
0
0
0
0
0
0
0
0
0
0
0
0
0
0
0
0
0
0
0
0
0
0.040674
0.0222544
-0.0102089
0.0473768
0.0183887
0.0675736
0.930438
0.80964
-0.178087
0.755501
2.53607
14.3387
26.3021
0
0
0
0
0
0
0
0
0
0
0
0
0
0
0
0
0
0
0
0
0
0
0
0
0
0
0
0
0
0
0
0
0
0
0
0
0
0.32155
0.27563
0.219603
-0.173849
-0.2172
0.777197
0.916648
3.70181
7.89906
8.9678
11.6117
27.2717
0
0
0
0
0
0
0
0
0
0
0
0
0
0
0
0
0
0
0
0
0
0
0
0
0
0
0
0
0
0
0
0
0
0
0
0
0
0
2.45787
2.59584
4.01582
4.53242
6.43299
7.47839
9.23983
7.89527
5.98596
8.49533
41.2731
0
0
0
0
0
0
0
0
0
0
0
0
0
0
0
0
0
0
0
0
0
0
0
0
0
0
0
0
0
0
0
0
0
0
0
0
0
0
0
9.36633
9.33066
8.04142
9.25902
7.69325
7.78758
9.09454
10.208
11.1703
21.7759
3.2041
0
0
0
0
0
0
0
0
0
0
0
0
0
0
0
0
0
0
0
0
0
0
0
0
0
0
0
0
0
0
0
0
0
0
0
0
0
0
0
7.92952
10.0992
10.1145
8.86149
11.2589
12.4355
10.8064
8.57914
8.60392
43.2779
0
0
0
0
0
0
0
0
0
0
0
0
0
0
0
0
0
0
0
0
0
0
0
0
0
0
0
0
0
0
0
0
0
0
0
0
0
0
0
0
13.2058
10.8439
11.0393
13.0106
10.7272
10.2862
9.48307
9.57063
8.67562
33.2233
0
0
0
0
0
0
0
0
0
0
0
0
0
0
0
0
0
0
0
0
0
0
0
0
0
0
0
0
0
0
0
0
0
0
0
0
0
0
0
0
8.71388
9.82855
9.83715
7.65861
8.9401
7.02241
6.34758
6.44313
5.90605
26.1906
0
0
0
0
0
0
0
0
0
0
0
0
0
0
0
0
0
0
0
0
0
0
0
0
0
0
0
0
0
0
0
0
0
0
0
0
0
0
0
0
7.061
5.55892
5.71513
6.83869
5.56628
5.6724
5.42452
5.43401
4.26976
17.1298
0
0
0
0
0
0
0
0
0
0
0
0
0
0
0
0
0
0
0
0
0
0
0
0
0
0
0
0
0
0
0
0
0
0
0
0
0
0
0
0
6.55202
6.55536
6.55982
5.31204
5.40986
6.30896
5.08555
5.09432
5.2091
10.3371
0
0
0
0
0
0
0
0
0
0
0
0
0
0
0
0
0
0
0
0
0
0
0
0
0
0
0
0
0
0
0
0
0
0
0
0
0
0
0
0
5.52783
5.53996
5.54196
5.54121
5.54439
4.52522
5.16545
5.22779
16.4546
0
0
0
0
0
0
0
0
0
0
0
0
0
0
0
0
0
0
0
0
0
0
0
0
0
0
0
0
0
0
0
0
0
0
0
0
0
0
0
0
0
3.60674
3.66202
3.98033
3.98143
3.98244
3.98396
3.23505
3.31189
11.5415
0
0
0
0
0
0
0
0
0
0
0
0
0
0
0
0
0
0
0
0
0
0
0
0
0
0
0
0
0
0
0
0
0
0
0
0
0
0
0
0
0
6.01719
6.36025
5.75447
5.75462
5.75506
5.75536
5.75588
5.76119
8.30564
0
0
0
0
0
0
0
0
0
0
0
0
0
0
0
0
0
0
0
0
0
0
0
0
0
0
0
0
0
0
0
0
0
0
0
0
0
0
0
0
0
3.29611
2.74112
2.74112
2.74112
2.74112
2.74112
2.74112
2.74112
2.74112
0
0
0
0
0
0
0
0
0
0
0
0
0
0
0
0
0
0
0
0
0
0
0
0
0
0
0
0
0
0
0
0
0
0
0
0
0
0
0
0
0
0
0
0
0
0
0
0
0
0
0
0
0
0
0
0
0
0
0
0
0
0
0
0
0
0
0
0
0
0
0
0
0
0
0
0
0
0
0
0
0
0
0
0
0
0
0
0
0
0
0
