# vtk DataFile Version 4.0
Nusif Fluid VTK output
ASCII
DATASET STRUCTURED_POINTS
DIMENSIONS 50 20 1
ORIGIN 0 0 0 
SPACING 0.2 0.2 1
POINT_DATA 1000 

VECTORS velocity double
0.0423358 -0.0395686  0
0.126399 -0.0398383  0
0.210115 -0.040133  0
0.294337 -0.0405057  0
0.379118 -0.0409028  0
0.464648 -0.0413777  0
0.551262 -0.0420864  0
0.639601 -0.0432282  0
0.730548 -0.0448085  0
0.824593 -0.0464141  0
0.921099 -0.047355  0
1.01855 -0.0474371  0
1.11711 -0.048501  0
1.21917 -0.0509871  0
1.32628 -0.0535879  0
1.43575 -0.0533784  0
1.5391 -0.0475003  0
1.62986 -0.0407904  0
1.70887 -0.0357761  0
1.77963 -0.0325468  0
1.84509 -0.0304786  0
1.90698 -0.0289962  0
1.96633 -0.0279415  0
2.02373 -0.027051  0
2.07978 -0.0265759  0
2.13561 -0.0268424  0
2.19311 -0.0282418  0
2.25276 -0.0289956  0
2.30737 -0.0232151  0
2.34907 -0.0160654  0
2.37796 -0.010406  0
2.39914 -0.00836283  0
2.42043 -0.0105226  0
2.44891 -0.01554  0
2.48286 -0.0160022  0
2.50218 -0.000909025  0
2.48432 0.0211899  0
2.44116 0.0243808  0
2.41798 0  0
1.20899 0  0
0 0  0
0 0  0
0 0  0
0 0  0
0 0  0
0 0  0
0 0  0
0 0  0
0 0  0
0 0  0
0.0422795 -0.119561  0
0.126393 -0.120277  0
0.210232 -0.121119  0
0.29446 -0.122033  0
0.379121 -0.123035  0
0.464224 -0.124227  0
0.549853 -0.125961  0
0.636646 -0.129107  0
0.725923 -0.133875  0
0.818592 -0.13888  0
0.913456 -0.141151  0
1.00685 -0.139447  0
1.09842 -0.14163  0
1.19292 -0.149462  0
1.29437 -0.15876  0
1.40111 -0.159521  0
1.50081 -0.139553  0
1.58544 -0.119258  0
1.65925 -0.105292  0
1.72688 -0.0965856  0
1.79117 -0.0913474  0
1.85303 -0.0870605  0
1.9129 -0.0842801  0
1.9709 -0.0812968  0
2.02745 -0.0800908  0
2.08388 -0.0807556  0
2.14272 -0.0858599  0
2.20644 -0.0899174  0
2.26355 -0.0691897  0
2.305 -0.0484162  0
2.33508 -0.0322006  0
2.35795 -0.0257925  0
2.37932 -0.0309416  0
2.40542 -0.0448649  0
2.44002 -0.0504081  0
2.47591 -0.0168982  0
2.49202 0.0425535  0
2.49185 0.0487616  0
2.45492 0.0243808  0
1.20899 0  0
0 0  0
0 0  0
0 0  0
0 0  0
0 0  0
0 0  0
0 0  0
0 0  0
0 0  0
0 0  0
0.0422082 -0.200534  0
0.12636 -0.201637  0
0.210459 -0.202957  0
0.29478 -0.20404  0
0.379144 -0.205293  0
0.463275 -0.206487  0
0.546565 -0.207924  0
0.629723 -0.212382  0
0.715335 -0.220773  0
0.805665 -0.230275  0
0.898213 -0.23245  0
0.984579 -0.223172  0
1.06367 -0.223827  0
1.14464 -0.237975  0
1.236 -0.258298  0
1.3383 -0.264243  0
1.43158 -0.223041  0
1.507 -0.191028  0
1.57584 -0.171371  0
1.64226 -0.159757  0
1.70747 -0.152864  0
1.77129 -0.14642  0
1.83327 -0.141959  0
1.89312 -0.136634  0
1.95096 -0.134331  0
2.00781 -0.134964  0
2.06715 -0.145019  0
2.13356 -0.156072  0
2.19341 -0.116361  0
2.23882 -0.0856939  0
2.27719 -0.0609683  0
2.30988 -0.0501696  0
2.33644 -0.0520919  0
2.3554 -0.0663523  0
2.36904 -0.0747498  0
2.37498 -0.0319783  0
2.4304 0.00537442  0
2.48883 0.0243808  0
1.24592 0.0243808  0
0 0  0
0 0  0
0 0  0
0 0  0
0 0  0
0 0  0
0 0  0
0 0  0
0 0  0
0 0  0
0 0  0
0.0419882 -0.281583  0
0.126026 -0.283288  0
0.210649 -0.285357  0
0.295118 -0.285802  0
0.378535 -0.286676  0
0.460247 -0.286306  0
0.539083 -0.285593  0
0.616046 -0.290158  0
0.695634 -0.303513  0
0.783126 -0.320664  0
0.871726 -0.318525  0
0.950072 -0.297105  0
1.01816 -0.29234  0
1.08547 -0.312986  0
1.16283 -0.347243  0
1.25275 -0.362749  0
1.34172 -0.303198  0
1.41999 -0.262177  0
1.49788 -0.244542  0
1.57 -0.222729  0
1.64215 -0.224843  0
1.70832 -0.202027  0
1.77411 -0.211723  0
1.83656 -0.186743  0
1.89473 -0.197831  0
1.95404 -0.185212  0
2.00347 -0.201118  0
2.02978 -0.1903  0
2.10676 -0.165536  0
2.2076 -0.0533431  0
2.25658 -0.0391738  0
2.30238 -0.03274  0
2.34073 -0.0316729  0
2.36407 -0.0370274  0
2.348 -0.0403439  0
2.35062 -0.0159891  0
1.18749 -0.0159891  0
0 0  0
0 0  0
0 0  0
0 0  0
0 0  0
0 0  0
0 0  0
0 0  0
0 0  0
0 0  0
0 0  0
0 0  0
0 0  0
0.0412102 -0.36195  0
0.124376 -0.365008  0
0.210397 -0.369703  0
0.294293 -0.365294  0
0.372611 -0.364396  0
0.448867 -0.361952  0
0.52205 -0.357343  0
0.592572 -0.361249  0
0.665565 -0.380335  0
0.747936 -0.40902  0
0.823383 -0.390703  0
0.898372 -0.375917  0
0.979209 -0.360092  0
1.04388 -0.374834  0
1.09894 -0.415434  0
1.12614 -0.409297  0
1.23195 -0.376858  0
1.39047 -0.149616  0
1.47527 -0.142687  0
1.56016 -0.127012  0
1.62881 -0.132848  0
1.70157 -0.113671  0
1.7648 -0.126103  0
1.82748 -0.104355  0
1.89454 -0.117015  0
1.95074 -0.104162  0
1.99446 -0.113717  0
2.01122 -0.09515  0
1.01489 -0.09515  0
0 0  0
0 0  0
0 0  0
0 0  0
0 0  0
0 0  0
0 0  0
0 0  0
0 0  0
0 0  0
0 0  0
0 0  0
0 0  0
0 0  0
0 0  0
0 0  0
0 0  0
0 0  0
0 0  0
0 0  0
0 0  0
0.0394218 -0.439993  0
0.119341 -0.445234  0
0.205322 -0.456999  0
0.278803 -0.432006  0
0.354262 -0.449223  0
0.427464 -0.424308  0
0.496454 -0.43485  0
0.570317 -0.425802  0
0.627784 -0.44391  0
0.654635 -0.45233  0
0.753631 -0.436997  0
0.885991 -0.209973  0
0.970584 -0.19845  0
1.06675 -0.201347  0
1.10224 -0.221318  0
1.10947 -0.204649  0
0.563071 -0.204649  0
0 0  0
0 0  0
0 0  0
0 0  0
0 0  0
0 0  0
0 0  0
0 0  0
0 0  0
0 0  0
0 0  0
0 0  0
0 0  0
0 0  0
0 0  0
0 0  0
0 0  0
0 0  0
0 0  0
0 0  0
0 0  0
0 0  0
0 0  0
0 0  0
0 0  0
0 0  0
0 0  0
0 0  0
0 0  0
0 0  0
0 0  0
0 0  0
0 0  0
0.0364766 -0.514648  0
0.0948391 -0.506517  0
0.116725 -0.501365  0
0.230103 -0.480685  0
0.349284 -0.248342  0
0.418171 -0.225024  0
0.499638 -0.23905  0
0.566649 -0.228208  0
0.625741 -0.235381  0
0.64542 -0.226165  0
0.327318 -0.226165  0
0 0  0
0 0  0
0 0  0
0 0  0
0 0  0
0 0  0
0 0  0
0 0  0
0 0  0
0 0  0
0 0  0
0 0  0
0 0  0
0 0  0
0 0  0
0 0  0
0 0  0
0 0  0
0 0  0
0 0  0
0 0  0
0 0  0
0 0  0
0 0  0
0 0  0
0 0  0
0 0  0
0 0  0
0 0  0
0 0  0
0 0  0
0 0  0
0 0  0
0 0  0
0 0  0
0 0  0
0 0  0
0 0  0
0 0  0
0.0251159 -0.275562  0
0.0699595 -0.264202  0
0.103206 -0.250683  0
0.0583626 -0.250683  0
0 0  0
0 0  0
0 0  0
0 0  0
0 0  0
0 0  0
0 0  0
0 0  0
0 0  0
0 0  0
0 0  0
0 0  0
0 0  0
0 0  0
0 0  0
0 0  0
0 0  0
0 0  0
0 0  0
0 0  0
0 0  0
0 0  0
0 0  0
0 0  0
0 0  0
0 0  0
0 0  0
0 0  0
0 0  0
0 0  0
0 0  0
0 0  0
0 0  0
0 0  0
0 0  0
0 0  0
0 0  0
0 0  0
0 0  0
0 0  0
0 0  0
0 0  0
0 0  0
0 0  0
0 0  0
0 0  0
0 0  0
0 0  0
0 0  0
0 0  0
0 0  0
0 0  0
0 0  0
0 0  0
0 0  0
0 0  0
0 0  0
0 0  0
0 0  0
0 0  0
0 0  0
0 0  0
0 0  0
0 0  0
0 0  0
0 0  0
0 0  0
0 0  0
0 0  0
0 0  0
0 0  0
0 0  0
0 0  0
0 0  0
0 0  0
0 0  0
0 0  0
0 0  0
0 0  0
0 0  0
0 0  0
0 0  0
0 0  0
0 0  0
0 0  0
0 0  0
0 0  0
0 0  0
0 0  0
0 0  0
0 0  0
0 0  0
0 0  0
0 0  0
0 0  0
0 0  0
0 0  0
0 0  0
0 0  0
0 0  0
0 0  0
0 0  0
0 0  0
0 0  0
0 0  0
0 0  0
0 0  0
0 0  0
0 0  0
0 0  0
0 0  0
0 0  0
0 0  0
0 0  0
0 0  0
0 0  0
0 0  0
0 0  0
0 0  0
0 0  0
0 0  0
0 0  0
0 0  0
0 0  0
0 0  0
0 0  0
0 0  0
0 0  0
0 0  0
0 0  0
0 0  0
0 0  0
0 0  0
0 0  0
0 0  0
0 0  0
0 0  0
0 0  0
0 0  0
0 0  0
0 0  0
0 0  0
0 0  0
0 0  0
0 0  0
0 0  0
0 0  0
0 0  0
0 0  0
0 0  0
0 0  0
0 0  0
0 0  0
0 0  0
0 0  0
0 0  0
0 0  0
0 0  0
0 0  0
0 0  0
0 0  0
0 0  0
0 0  0
0 0  0
0 0  0
0 0  0
0 0  0
0 0  0
0 0  0
0 0  0
0 0  0
0 0  0
0 0  0
0 0  0
0 0  0
0 0  0
0 0  0
0 0  0
0 0  0
0 0  0
0 0  0
0 0  0
0 0  0
0 0  0
0 0  0
0 0  0
0 0  0
0 0  0
0 0  0
0 0  0
0 0  0
0 0  0
0 0  0
0 0  0
0 0  0
0 0  0
0 0  0
0 0  0
0 0  0
0 0  0
0 0  0
0 0  0
0 0  0
0 0  0
0 0  0
0 0  0
0 0  0
0 0  0
0 0  0
0 0  0
0 0  0
0 0  0
0 0  0
0 0  0
0 0  0
0 0  0
0 0  0
0 0  0
0 0  0
0 0  0
0 0  0
0 0  0
0 0  0
0 0  0
0 0  0
0 0  0
0 0  0
0 0  0
0 0  0
0 0  0
0 0  0
0 0  0
0 0  0
0 0  0
0 0  0
0 0  0
0 0  0
0 0  0
0 0  0
0 0  0
0 0  0
0 0  0
0 0  0
0 0  0
0 0  0
0 0  0
0 0  0
0 0  0
0 0  0
0 0  0
0 0  0
0 0  0
0 0  0
0 0  0
0 0  0
0 0  0
0 0  0
0 0  0
0 0  0
0 0  0
0 0  0
0 0  0
0 0  0
0 0  0
0 0  0
0 0  0
0 0  0
0 0  0
0 0  0
0 0  0
0 0  0
0 0  0
0 0  0
0 0  0
0 0  0
0 0  0
0 0  0
0 0  0
0 0  0
0 0  0
0 0  0
0 0  0
0 0  0
0 0  0
0 0  0
0 0  0
0 0  0
0 0  0
0 0  0
0 0  0
0 0  0
0 0  0
0 0  0
0 0  0
0 0  0
0 0  0
0 0  0
0 0  0
0 0  0
0 0  0
0 0  0
0 0  0
0 0  0
0 0  0
0 0  0
0 0  0
0 0  0
0 0  0
0 0  0
0 0  0
0 0  0
0 0  0
0 0  0
0 0  0
0 0  0
0 0  0
0 0  0
0 0  0
0 0  0
0 0  0
0 0  0
0 0  0
0 0  0
0 0  0
0 0  0
0 0  0
0 0  0
0 0  0
0 0  0
0 0  0
0 0  0
0 0  0
0 0  0
0 0  0
0 0  0
0 0  0
0 0  0
0 0  0
0 0  0
0 0  0
0 0  0
0 0  0
0 0  0
0 0  0
0 0  0
0 0  0
0 0  0
0 0  0
0 0  0
0 0  0
0 0  0
0 0  0
0 0  0
0 0  0
0 0  0
0 0  0
0 0  0
0 0  0
0 0  0
0 0  0
0 0  0
0 0  0
0 0  0
0 0  0
0 0  0
0 0  0
0 0  0
0 0  0
0 0  0
0 0  0
0 0  0
0 0  0
0 0  0
0 0  0
0 0  0
0 0  0
0 0  0
0 0  0
0 0  0
0 0  0
0 0  0
0 0  0
0 0  0
0 0  0
0 0  0
0 0  0
0 0  0
0 0  0
0 0  0
0 0  0
0 0  0
0 0  0
0 0  0
0 0  0
0 0  0
0 0  0
0 0  0
0 0  0
0 0  0
0 0  0
0 0  0
0 0  0
0 0  0
0 0  0
0 0  0
0 0  0
0 0  0
0 0  0
0 0  0
0 0  0
0 0  0
0 0  0
0 0  0
0 0  0
0 0  0
0 0  0
0 0  0
0 0  0
0 0  0
0 0  0
0 0  0
0 0  0
0 0  0
0 0  0
0 0  0
0 0  0
0 0  0
0 0  0
0 0  0
0 0  0
0 0  0
0 0  0
0 0  0
0 0  0
0 0  0
0 0  0
0 0  0
0 0  0
0 0  0
0 0  0
0 0  0
0 0  0
0 0  0
0 0  0
0 0  0
0 0  0
0 0  0
0 0  0
0 0  0
0 0  0
0 0  0
0 0  0
0 0  0
0 0  0
0 0  0
0 0  0
0 0  0
0 0  0
0 0  0
0 0  0
0 0  0
0 0  0
0 0  0
0 0  0
0 0  0
0 0  0
0 0  0
0 0  0
0 0  0
0 0  0
0 0  0
0 0  0
0 0  0
0 0  0
0 0  0
0 0  0
0 0  0
0 0  0
0 0  0
0 0  0
0 0  0
0 0  0
0 0  0
0 0  0
0 0  0
0 0  0
0 0  0
0 0  0
0 0  0
0 0  0
0 0  0
0 0  0
0 0  0
0 0  0
0 0  0
0 0  0
0 0  0
0 0  0
0 0  0
0 0  0
0 0  0
0 0  0
0 0  0
0 0  0
0 0  0
0 0  0
0 0  0
0 0  0
0 0  0
0 0  0
0 0  0
0 0  0
0 0  0
0 0  0
0 0  0
0 0  0
0 0  0
0 0  0
0 0  0
0 0  0
0 0  0
0 0  0
0 0  0
0 0  0
0 0  0
0 0  0
0 0  0
0 0  0
0 0  0
0 0  0
0 0  0
0 0  0
0 0  0
0 0  0
0 0  0
0 0  0
0 0  0
0 0  0
0 0  0
0 0  0
0 0  0
0 0  0
0 0  0
0 0  0
0 0  0
0 0  0
0 0  0
0 0  0
0 0  0
0 0  0
0 0  0
0 0  0
0 0  0
0 0  0
0 0  0
0 0  0
0 0  0
0 0  0
0 0  0
0 0  0
0 0  0
0 0  0
0 0  0
0 0  0
0 0  0
0 0  0
0 0  0
0 0  0
0 0  0
0 0  0
0 0  0
0 0  0
0 0  0
0 0  0
0 0  0
0 0  0
0 0  0
0 0  0
0 0  0
0 0  0
0 0  0
0 0  0
0 0  0
0 0  0
0 0  0
0 0  0
0 0  0
0 0  0
0 0  0
0 0  0
0 0  0
0 0  0
0 0  0
0 0  0
0 0  0
0 0  0
0 0  0
0 0  0
0 0  0
0 0  0
0 0  0
0 0  0
0 0  0
0 0  0
0 0  0
0 0  0
0 0  0
0 0  0
0 0  0
0 0  0
0 0  0
0 0  0
0 0  0
0 0  0
0 0  0
0 0  0
0 0  0
0 0  0
0 0  0
0 0  0
0 0  0
0 0  0
0 0  0
0 0  0
0 0  0
0 0  0
0 0  0
0 0  0
0 0  0
0 0  0
0 0  0
0 0  0
0 0  0
0 0  0
0 0  0
0 0  0
0 0  0
0 0  0
0 0  0
0 0  0
0 0  0
0 0  0
0 0  0
0 0  0
0 0  0
0 0  0

SCALARS pressure double 1
LOOKUP_TABLE default
1.05338
1.04777
1.03811
1.02452
1.00844
0.990606
0.97093
0.949132
0.92476
0.897463
0.867926
0.838096
0.808869
0.778196
0.742288
0.698341
0.650186
0.608958
0.578246
0.5565
0.541342
0.52983
0.520487
0.510815
0.499538
0.483696
0.461005
0.429373
0.393842
0.371334
0.359585
0.353899
0.349505
0.342316
0.32776
0.306458
0.293632
0.381434
0.643172
0
0
0
0
0
0
0
0
0
0
0
0.851931
0.845946
0.834867
0.820085
0.803278
0.785014
0.765268
0.743289
0.718072
0.68869
0.656428
0.625702
0.597558
0.56857
0.533201
0.4863
0.432809
0.39341
0.367611
0.350091
0.339051
0.329832
0.323675
0.315622
0.307407
0.293683
0.272166
0.235791
0.186833
0.168786
0.162593
0.161402
0.160166
0.156955
0.143501
0.1055
0.00548278
-0.0246502
0
0
0
0
0
0
0
0
0
0
0
0
0.653605
0.646375
0.632366
0.613724
0.595293
0.576587
0.557489
0.535711
0.509198
0.475112
0.434819
0.404065
0.379982
0.355763
0.323213
0.269186
0.197668
0.16494
0.150762
0.139763
0.137844
0.130062
0.132442
0.124522
0.124674
0.114821
0.100121
0.057657
-0.0450038
-0.0377911
-0.0321316
-0.0248889
-0.022313
-0.0133742
0
-0.0214319
0
0
0
0
0
0
0
0
0
0
0
0
0
0
0.459748
0.450301
0.430461
0.402703
0.383225
0.364652
0.348724
0.32902
0.302703
0.260281
0.196015
0.172837
0.159855
0.144952
0.124204
0.0612669
-0.0765404
-0.0814519
-0.0690724
-0.0808843
-0.0576012
-0.0810189
-0.0476567
-0.0748937
-0.0466686
-0.0599291
-0.0456282
-0.0520348
0
0
0
0
0
0
0
0
0
0
0
0
0
0
0
0
0
0
0
0
0
0
0.273127
0.261421
0.232337
0.17897
0.166101
0.146862
0.142111
0.127239
0.108691
0.060328
-0.0946041
-0.0713083
-0.0614698
-0.0672747
-0.0432081
-0.0715218
0
0
0
0
0
0
0
0
0
0
0
0
0
0
0
0
0
0
0
0
0
0
0
0
0
0
0
0
0
0
0
0
0
0
0.0967262
0.087294
0.0545599
-0.0953139
-0.0506053
-0.092339
-0.0580981
-0.0755019
-0.0611733
-0.041364
0
0
0
0
0
0
0
0
0
0
0
0
0
0
0
0
0
0
0
0
0
0
0
0
0
0
0
0
0
0
0
0
0
0
0
0
0
0
0
0
-0.075752
-0.0696437
-0.0143052
0
0
0
0
0
0
0
0
0
0
0
0
0
0
0
0
0
0
0
0
0
0
0
0
0
0
0
0
0
0
0
0
0
0
0
0
0
0
0
0
0
0
0
0
0
0
0
0
0
0
0
0
0
0
0
0
0
0
0
0
0
0
0
0
0
0
0
0
0
0
0
0
0
0
0
0
0
0
0
0
0
0
0
0
0
0
0
0
0
0
0
0
0
0
0
0
0
0
0
0
0
0
0
0
0
0
0
0
0
0
0
0
0
0
0
0
0
0
0
0
0
0
0
0
0
0
0
0
0
0
0
0
0
0
0
0
0
0
0
0
0
0
0
0
0
0
0
0
0
0
0
0
0
0
0
0
0
0
0
0
0
0
0
0
0
0
0
0
0
0
0
0
0
0
0
0
0
0
0
0
0
0
0
0
0
0
0
0
0
0
0
0
0
0
0
0
0
0
0
0
0
0
0
0
0
0
0
0
0
0
0
0
0
0
0
0
0
0
0
0
0
0
0
0
0
0
0
0
0
0
0
0
0
0
0
0
0
0
0
0
0
0
0
0
0
0
0
0
0
0
0
0
0
0
0
0
0
0
0
0
0
0
0
0
0
0
0
0
0
0
0
0
0
0
0
0
0
0
0
0
0
0
0
0
0
0
0
0
0
0
0
0
0
0
0
0
0
0
0
0
0
0
0
0
0
0
0
0
0
0
0
0
0
0
0
0
0
0
0
0
0
0
0
0
0
0
0
0
0
0
0
0
0
0
0
0
0
0
0
0
0
0
0
0
0
0
0
0
0
0
0
0
0
0
0
0
0
0
0
0
0
0
0
0
0
0
0
0
0
0
0
0
0
0
0
0
0
0
0
0
0
0
0
0
0
0
0
0
0
0
0
0
0
0
0
0
0
0
0
0
0
0
0
0
0
0
0
0
0
0
0
0
0
0
0
0
0
0
0
0
0
0
0
0
0
0
0
0
0
0
0
0
0
0
0
0
0
0
0
0
0
0
0
0
0
0
0
0
0
0
0
0
0
0
0
0
0
0
0
0
0
0
0
0
0
0
0
0
0
0
0
0
0
0
0
0
0
0
0
0
0
0
0
0
0
0
0
0
0
0
0
0
0
0
0
0
0
0
0
0
0
0
0
0
0
0
0
0
0
0
0
0
0
0
0
0
0
0
0
0
0
0
0
0
0
0
0
0
0
0
0
0
0
0
0
0
0
0
0
0
0
0
0
0
0
0
0
0
0
0
0
0
0
0
0
0
0
0
0
0
0
0
0
0
0
0
0
0
0
0
0
0
0
0
0
0
0
0
0
0
0
0
0
0
0
0
0
0
0
0
0
0
0
0
0
0
0
0
0
0
0
0
0
0
0
0
0
0
0
0
0
0
0
0
0
0
0
0
0
0
0
0
0
0
0
0
0
0
0
0
0
0
0
0
0
0
0
0
0
0
0
0
0
0
0
0
0
0
0
0
0
0
0
0
0
0
0
0
0
0
0
0
0
0
0
0
0
0
0
0
0
0
0
0
0
0
0
0
0
0
0
0
0
0
0
0
0
0
0
0
0
0
0
0
0
0
0
SCALARS rhs double 1
LOOKUP_TABLE default
-4.78628
-4.97576
-5.01709
-5.04193
-5.06408
-5.08561
-5.11005
-5.14194
-5.18407
-5.22874
-5.26005
-5.26669
-5.29588
-5.35468
-5.41377
-5.39767
-5.25374
-5.12072
-5.03773
-4.99284
-4.96419
-4.94546
-4.92916
-4.92013
-4.91564
-4.92276
-4.94276
-4.93759
-4.85146
-4.79275
-4.77318
-4.78066
-4.8033
-4.818
-4.77515
-4.81211
-4.68799
-5.80374
-0.301463
0
0
0
0
0
0
0
0
0
0
0
0.090946
-0.0641671
-0.0875667
-0.099962
-0.106436
-0.110875
-0.11644
-0.130918
-0.162888
-0.201076
-0.215701
-0.173481
-0.180544
-0.243819
-0.314353
-0.293988
-0.0942666
0.0145055
0.050636
0.0624237
0.0714763
0.0811961
0.0921964
0.0974771
0.099975
0.0809276
0.0483025
0.0731514
0.152992
0.193301
0.182046
0.154616
0.121911
0.119567
0.40527
0.300353
-1.74798
-0.844075
0
0
0
0
0
0
0
0
0
0
0
0
0.0443573
-0.0876613
-0.109524
-0.117624
-0.117833
-0.112993
-0.0977272
-0.103618
-0.138609
-0.194142
-0.200025
-0.0776964
-0.0726806
-0.161846
-0.266665
-0.20984
-0.0102932
0.0141995
0.00318096
-0.0316725
-0.00390433
-0.0285949
0.0195857
-0.00245027
0.0280936
-0.0117852
-0.0410482
0.207398
4.53285
4.71836
3.67486
2.27407
0.3457
-1.73326
-1.3836
-0.301463
0
0
0
0
0
0
0
0
0
0
0
0
0
0
0.0150994
-0.0916579
-0.115658
-0.13253
-0.113401
-0.0917115
-0.0539776
-0.0524244
-0.0993391
-0.181267
-0.279488
-0.0733083
-0.0844285
-0.184397
-0.268525
0.00369687
1.71586
4.57715
25.3848
19.001
14.7454
9.96356
6.9052
4.11729
4.53285
4.71836
2.27407
-1.37088
0
0
0
0
0
0
0
0
0
0
0
0
0
0
0
0
0
0
0
0
0
0
-0.00236134
-0.0853914
-0.116436
-0.273249
-0.17031
-0.185983
-0.105269
-0.125141
-0.15255
-0.215513
-0.591028
-0.817006
2.02848
2.31906
41.5307
32.8547
19.5017
9.00999
0
0
0
0
0
0
0
0
0
0
0
0
0
0
0
0
0
0
0
0
0
0
0
0
0
0
0
0
0
0
0
0
-0.128308
-0.179076
-0.227932
-0.78731
-1.46732
-2.00272
-2.18202
-0.756423
1.47337
2.8845
4.68643
4.81997
12.4974
35.3186
0
0
0
0
0
0
0
0
0
0
0
0
0
0
0
0
0
0
0
0
0
0
0
0
0
0
0
0
0
0
0
0
0
0
0
0
1.47614
1.54411
2.09799
2.47435
3.77929
5.12603
6.33856
5.10183
2.09579
1.47098
2.53607
14.3387
26.3021
0
0
0
0
0
0
0
0
0
0
0
0
0
0
0
0
0
0
0
0
0
0
0
0
0
0
0
0
0
0
0
0
0
0
0
0
0
2.59543
2.54951
1.62039
1.22694
0.49828
0.777197
0.916648
3.70181
7.89906
8.9678
11.6117
27.2717
0
0
0
0
0
0
0
0
0
0
0
0
0
0
0
0
0
0
0
0
0
0
0
0
0
0
0
0
0
0
0
0
0
0
0
0
0
0
2.45787
2.59584
4.01582
4.53242
6.43299
7.47839
9.23983
7.89527
5.98596
8.49533
41.2731
0
0
0
0
0
0
0
0
0
0
0
0
0
0
0
0
0
0
0
0
0
0
0
0
0
0
0
0
0
0
0
0
0
0
0
0
0
0
0
9.36633
9.33066
8.04142
9.25902
7.69325
7.78758
9.09454
10.208
11.1703
21.7759
3.2041
0
0
0
0
0
0
0
0
0
0
0
0
0
0
0
0
0
0
0
0
0
0
0
0
0
0
0
0
0
0
0
0
0
0
0
0
0
0
0
7.92952
10.0992
10.1145
8.86149
11.2589
12.4355
10.8064
8.57914
8.60392
43.2779
0
0
0
0
0
0
0
0
0
0
0
0
0
0
0
0
0
0
0
0
0
0
0
0
0
0
0
0
0
0
0
0
0
0
0
0
0
0
0
0
13.2058
10.8439
11.0393
13.0106
10.7272
10.2862
9.48307
9.57063
8.67562
33.2233
0
0
0
0
0
0
0
0
0
0
0
0
0
0
0
0
0
0
0
0
0
0
0
0
0
0
0
0
0
0
0
0
0
0
0
0
0
0
0
0
8.71388
9.82855
9.83715
7.65861
8.9401
7.02241
6.34758
6.44313
5.90605
26.1906
0
0
0
0
0
0
0
0
0
0
0
0
0
0
0
0
0
0
0
0
0
0
0
0
0
0
0
0
0
0
0
0
0
0
0
0
0
0
0
0
7.061
5.55892
5.71513
6.83869
5.56628
5.6724
5.42452
5.43401
4.26976
17.1298
0
0
0
0
0
0
0
0
0
0
0
0
0
0
0
0
0
0
0
0
0
0
0
0
0
0
0
0
0
0
0
0
0
0
0
0
0
0
0
0
6.55202
6.55536
6.55982
5.31204
5.40986
6.30896
5.08555
5.09432
5.2091
10.3371
0
0
0
0
0
0
0
0
0
0
0
0
0
0
0
0
0
0
0
0
0
0
0
0
0
0
0
0
0
0
0
0
0
0
0
0
0
0
0
0
5.52783
5.53996
5.54196
5.54121
5.54439
4.52522
5.16545
5.22779
16.4546
0
0
0
0
0
0
0
0
0
0
0
0
0
0
0
0
0
0
0
0
0
0
0
0
0
0
0
0
0
0
0
0
0
0
0
0
0
0
0
0
0
3.60674
3.66202
3.98033
3.98143
3.98244
3.98396
3.23505
3.31189
11.5415
0
0
0
0
0
0
0
0
0
0
0
0
0
0
0
0
0
0
0
0
0
0
0
0
0
0
0
0
0
0
0
0
0
0
0
0
0
0
0
0
0
6.01719
6.36025
5.75447
5.75462
5.75506
5.75536
5.75588
5.76119
8.30564
0
0
0
0
0
0
0
0
0
0
0
0
0
0
0
0
0
0
0
0
0
0
0
0
0
0
0
0
0
0
0
0
0
0
0
0
0
0
0
0
0
3.29611
2.74112
2.74112
2.74112
2.74112
2.74112
2.74112
2.74112
2.74112
0
0
0
0
0
0
0
0
0
0
0
0
0
0
0
0
0
0
0
0
0
0
0
0
0
0
0
0
0
0
0
0
0
0
0
0
0
0
0
0
0
0
0
0
0
0
0
0
0
0
0
0
0
0
0
0
0
0
0
0
0
0
0
0
0
0
0
0
0
0
0
0
0
0
0
0
0
0
0
0
0
0
0
0
0
0
0
0
0
0
0
