# vtk DataFile Version 4.0
Nusif Fluid VTK output
ASCII
DATASET STRUCTURED_POINTS
DIMENSIONS 50 20 1
ORIGIN 0 0 0 
SPACING 0.2 0.2 1
POINT_DATA 1000 

VECTORS velocity double
0.0348592 -0.0389047  0
0.105025 -0.0388574  0
0.17574 -0.0388497  0
0.246663 -0.0389694  0
0.317844 -0.039044  0
0.38945 -0.0392642  0
0.461604 -0.0395208  0
0.534333 -0.0398167  0
0.607464 -0.0398479  0
0.679955 -0.0391286  0
0.750922 -0.0382756  0
0.820101 -0.0373401  0
0.887067 -0.0359972  0
0.951621 -0.034931  0
1.01466 -0.0344601  0
1.07783 -0.0350288  0
1.14291 -0.036398  0
1.21162 -0.0385972  0
1.28358 -0.0396682  0
1.35201 -0.0350791  0
1.41411 -0.0333212  0
1.472 -0.0308617  0
1.52571 -0.0291552  0
1.57522 -0.026632  0
1.62324 -0.0276915  0
1.67171 -0.0270632  0
1.72147 -0.0289936  0
1.77138 -0.0272156  0
1.8212 -0.0288906  0
1.86996 -0.0261791  0
1.91727 -0.0274099  0
1.9636 -0.0252216  0
2.00855 -0.0260195  0
2.05358 -0.0253106  0
2.09785 -0.0252873  0
2.14213 -0.0253408  0
2.18522 -0.023978  0
2.22672 -0.0238017  0
2.266 -0.0218677  0
2.30333 -0.021659  0
2.34011 -0.0213976  0
2.3792 -0.0240637  0
2.42635 -0.0293234  0
2.48362 -0.034226  0
2.53422 -0.0226799  0
2.55303 -0.00241764  0
2.54841 0.000745499  0
2.54308 -0.001699  0
2.54508 -0.0065662  0
2.5485 0  0
0.0347259 -0.115975  0
0.104519 -0.115845  0
0.174571 -0.115855  0
0.244675 -0.116118  0
0.315021 -0.116454  0
0.385689 -0.117057  0
0.45688 -0.117955  0
0.529318 -0.119387  0
0.603141 -0.120017  0
0.675395 -0.116421  0
0.744496 -0.113719  0
0.811572 -0.110836  0
0.87624 -0.106751  0
0.938376 -0.103506  0
0.998946 -0.102134  0
1.05999 -0.104133  0
1.12353 -0.10853  0
1.1922 -0.116428  0
1.26706 -0.121256  0
1.33486 -0.102283  0
1.3921 -0.098027  0
1.44799 -0.0925308  0
1.50253 -0.0883078  0
1.55433 -0.0813808  0
1.60452 -0.0837136  0
1.65436 -0.0819481  0
1.70483 -0.0869088  0
1.75552 -0.0824882  0
1.80601 -0.0865111  0
1.85558 -0.0794705  0
1.90389 -0.0823135  0
1.95103 -0.0763697  0
1.99682 -0.0781946  0
2.04201 -0.0759535  0
2.08617 -0.0757  0
2.12986 -0.0754717  0
2.17218 -0.0718129  0
2.21317 -0.0710233  0
2.25239 -0.065755  0
2.28978 -0.0650625  0
2.3262 -0.0637332  0
2.36315 -0.0703736  0
2.40381 -0.083407  0
2.45198 -0.098158  0
2.50068 -0.07062  0
2.52431 -0.00635598  0
2.52861 -0.00128301  0
2.54461 -0.0198018  0
2.55784 -0.0131324  0
2.55337 -0.0065662  0
0.0343181 -0.191766  0
0.103104 -0.191508  0
0.171792 -0.191337  0
0.240319 -0.19167  0
0.308756 -0.192064  0
0.37734 -0.193168  0
0.446708 -0.194898  0
0.518704 -0.199321  0
0.595008 -0.202669  0
0.66547 -0.188956  0
0.728802 -0.186107  0
0.792398 -0.181599  0
0.854274 -0.175065  0
0.914215 -0.169771  0
0.972948 -0.167722  0
1.03173 -0.170928  0
1.09236 -0.178431  0
1.15817 -0.193582  0
1.23251 -0.205872  0
1.29514 -0.15751  0
1.3593 -0.17047  0
1.40982 -0.132794  0
1.47234 -0.171373  0
1.52632 -0.110409  0
1.58457 -0.169381  0
1.63341 -0.101274  0
1.69165 -0.182564  0
1.73584 -0.0879986  0
1.78937 -0.191315  0
1.84012 -0.0812571  0
1.88343 -0.178449  0
1.94115 -0.0913732  0
1.97573 -0.149849  0
2.03448 -0.114546  0
2.06665 -0.119728  0
2.11845 -0.133165  0
2.15424 -0.0985554  0
2.19599 -0.133301  0
2.23629 -0.0892213  0
2.27113 -0.120201  0
2.31206 -0.0922061  0
2.34422 -0.117245  0
2.37635 -0.115674  0
2.39462 -0.138623  0
2.40538 -0.0958802  0
2.46369 -0.0518784  0
2.55042 -0.0212267  0
2.57992 -0.037301  0
2.56943 -0.0257644  0
2.55337 -0.0065662  0
0.0336589 -0.26623  0
0.100846 -0.265634  0
0.167704 -0.265047  0
0.234035 -0.265186  0
0.300014 -0.265355  0
0.365759 -0.26663  0
0.431909 -0.269412  0
0.50062 -0.277965  0
0.574945 -0.287104  0
0.643727 -0.253114  0
0.701662 -0.249475  0
0.763968 -0.250364  0
0.826801 -0.2373  0
0.889207 -0.236123  0
0.948504 -0.225665  0
1.00837 -0.237949  0
1.0655 -0.235418  0
1.11345 -0.256633  0
1.13858 -0.248568  0
1.24387 -0.214589  0
1.34012 -0.105764  0
1.41628 -0.0711254  0
1.45688 -0.112221  0
1.52746 -0.0556607  0
1.5753 -0.113359  0
1.6447 -0.0463896  0
1.67799 -0.124649  0
1.74489 -0.032726  0
1.78461 -0.133695  0
1.82997 -0.0279657  0
1.89569 -0.123545  0
1.91528 -0.0402251  0
1.9994 -0.0976738  0
2.00613 -0.0639033  0
2.08578 -0.0693156  0
2.09986 -0.0830344  0
2.15729 -0.0507205  0
2.1906 -0.0860789  0
2.22701 -0.0453341  0
2.27567 -0.0767971  0
2.3062 -0.0498705  0
2.35594 -0.070935  0
2.38011 -0.0615904  0
2.38097 -0.0746911  0
2.37862 -0.0479401  0
1.20269 -0.0479401  0
1.28941 -0.0191982  0
2.57992 -0.0191982  0
1.29051 -0.0191982  0
0 0  0
0.0325275 -0.335596  0
0.098922 -0.336094  0
0.163154 -0.331796  0
0.229007 -0.336817  0
0.291723 -0.32863  0
0.356155 -0.339717  0
0.414837 -0.327374  0
0.463502 -0.343616  0
0.490691 -0.329208  0
0.579464 -0.306054  0
0.702473 -0.138812  0
0.758144 -0.14226  0
0.819467 -0.132988  0
0.881835 -0.134926  0
0.949703 -0.125616  0
1.01188 -0.136125  0
1.07025 -0.12912  0
1.10861 -0.140881  0
1.12198 -0.124284  0
0.569289 -0.124284  0
0 0  0
0 0  0
0 0  0
0 0  0
0 0  0
0 0  0
0 0  0
0 0  0
0 0  0
0 0  0
0 0  0
0 0  0
0 0  0
0 0  0
0 0  0
0 0  0
0 0  0
0 0  0
0 0  0
0 0  0
0 0  0
0 0  0
0 0  0
0 0  0
0 0  0
0 0  0
0 0  0
0 0  0
0 0  0
0 0  0
0.0334465 -0.184062  0
0.095941 -0.184981  0
0.164326 -0.181081  0
0.225855 -0.186153  0
0.294031 -0.177929  0
0.352651 -0.188461  0
0.411778 -0.174425  0
0.453681 -0.185403  0
0.469893 -0.164604  0
0.245346 -0.164604  0
0 0  0
0 0  0
0 0  0
0 0  0
0 0  0
0 0  0
0 0  0
0 0  0
0 0  0
0 0  0
0 0  0
0 0  0
0 0  0
0 0  0
0 0  0
0 0  0
0 0  0
0 0  0
0 0  0
0 0  0
0 0  0
0 0  0
0 0  0
0 0  0
0 0  0
0 0  0
0 0  0
0 0  0
0 0  0
0 0  0
0 0  0
0 0  0
0 0  0
0 0  0
0 0  0
0 0  0
0 0  0
0 0  0
0 0  0
0 0  0
0 0  0
0 0  0
0 0  0
0 0  0
0 0  0
0 0  0
0 0  0
0 0  0
0 0  0
0 0  0
0 0  0
0 0  0
0 0  0
0 0  0
0 0  0
0 0  0
0 0  0
0 0  0
0 0  0
0 0  0
0 0  0
0 0  0
0 0  0
0 0  0
0 0  0
0 0  0
0 0  0
0 0  0
0 0  0
0 0  0
0 0  0
0 0  0
0 0  0
0 0  0
0 0  0
0 0  0
0 0  0
0 0  0
0 0  0
0 0  0
0 0  0
0 0  0
0 0  0
0 0  0
0 0  0
0 0  0
0 0  0
0 0  0
0 0  0
0 0  0
0 0  0
0 0  0
0 0  0
0 0  0
0 0  0
0 0  0
0 0  0
0 0  0
0 0  0
0 0  0
0 0  0
0 0  0
0 0  0
0 0  0
0 0  0
0 0  0
0 0  0
0 0  0
0 0  0
0 0  0
0 0  0
0 0  0
0 0  0
0 0  0
0 0  0
0 0  0
0 0  0
0 0  0
0 0  0
0 0  0
0 0  0
0 0  0
0 0  0
0 0  0
0 0  0
0 0  0
0 0  0
0 0  0
0 0  0
0 0  0
0 0  0
0 0  0
0 0  0
0 0  0
0 0  0
0 0  0
0 0  0
0 0  0
0 0  0
0 0  0
0 0  0
0 0  0
0 0  0
0 0  0
0 0  0
0 0  0
0 0  0
0 0  0
0 0  0
0 0  0
0 0  0
0 0  0
0 0  0
0 0  0
0 0  0
0 0  0
0 0  0
0 0  0
0 0  0
0 0  0
0 0  0
0 0  0
0 0  0
0 0  0
0 0  0
0 0  0
0 0  0
0 0  0
0 0  0
0 0  0
0 0  0
0 0  0
0 0  0
0 0  0
0 0  0
0 0  0
0 0  0
0 0  0
0 0  0
0 0  0
0 0  0
0 0  0
0 0  0
0 0  0
0 0  0
0 0  0
0 0  0
0 0  0
0 0  0
0 0  0
0 0  0
0 0  0
0 0  0
0 0  0
0 0  0
0 0  0
0 0  0
0 0  0
0 0  0
0 0  0
0 0  0
0 0  0
0 0  0
0 0  0
0 0  0
0 0  0
0 0  0
0 0  0
0 0  0
0 0  0
0 0  0
0 0  0
0 0  0
0 0  0
0 0  0
0 0  0
0 0  0
0 0  0
0 0  0
0 0  0
0 0  0
0 0  0
0 0  0
0 0  0
0 0  0
0 0  0
0 0  0
0 0  0
0 0  0
0 0  0
0 0  0
0 0  0
0 0  0
0 0  0
0 0  0
0 0  0
0 0  0
0 0  0
0 0  0
0 0  0
0 0  0
0 0  0
0 0  0
0 0  0
0 0  0
0 0  0
0 0  0
0 0  0
0 0  0
0 0  0
0 0  0
0 0  0
0 0  0
0 0  0
0 0  0
0 0  0
0 0  0
0 0  0
0 0  0
0 0  0
0 0  0
0 0  0
0 0  0
0 0  0
0 0  0
0 0  0
0 0  0
0 0  0
0 0  0
0 0  0
0 0  0
0 0  0
0 0  0
0 0  0
0 0  0
0 0  0
0 0  0
0 0  0
0 0  0
0 0  0
0 0  0
0 0  0
0 0  0
0 0  0
0 0  0
0 0  0
0 0  0
0 0  0
0 0  0
0 0  0
0 0  0
0 0  0
0 0  0
0 0  0
0 0  0
0 0  0
0 0  0
0 0  0
0 0  0
0 0  0
0 0  0
0 0  0
0 0  0
0 0  0
0 0  0
0 0  0
0 0  0
0 0  0
0 0  0
0 0  0
0 0  0
0 0  0
0 0  0
0 0  0
0 0  0
0 0  0
0 0  0
0 0  0
0 0  0
0 0  0
0 0  0
0 0  0
0 0  0
0 0  0
0 0  0
0 0  0
0 0  0
0 0  0
0 0  0
0 0  0
0 0  0
0 0  0
0 0  0
0 0  0
0 0  0
0 0  0
0 0  0
0 0  0
0 0  0
0 0  0
0 0  0
0 0  0
0 0  0
0 0  0
0 0  0
0 0  0
0 0  0
0 0  0
0 0  0
0 0  0
0 0  0
0 0  0
0 0  0
0 0  0
0 0  0
0 0  0
0 0  0
0 0  0
0 0  0
0 0  0
0 0  0
0 0  0
0 0  0
0 0  0
0 0  0
0 0  0
0 0  0
0 0  0
0 0  0
0 0  0
0 0  0
0 0  0
0 0  0
0 0  0
0 0  0
0 0  0
0 0  0
0 0  0
0 0  0
0 0  0
0 0  0
0 0  0
0 0  0
0 0  0
0 0  0
0 0  0
0 0  0
0 0  0
0 0  0
0 0  0
0 0  0
0 0  0
0 0  0
0 0  0
0 0  0
0 0  0
0 0  0
0 0  0
0 0  0
0 0  0
0 0  0
0 0  0
0 0  0
0 0  0
0 0  0
0 0  0
0 0  0
0 0  0
0 0  0
0 0  0
0 0  0
0 0  0
0 0  0
0 0  0
0 0  0
0 0  0
0 0  0
0 0  0
0 0  0
0 0  0
0 0  0
0 0  0
0 0  0
0 0  0
0 0  0
0 0  0
0 0  0
0 0  0
0 0  0
0 0  0
0 0  0
0 0  0
0 0  0
0 0  0
0 0  0
0 0  0
0 0  0
0 0  0
0 0  0
0 0  0
0 0  0
0 0  0
0 0  0
0 0  0
0 0  0
0 0  0
0 0  0
0 0  0
0 0  0
0 0  0
0 0  0
0 0  0
0 0  0
0 0  0
0 0  0
0 0  0
0 0  0
0 0  0
0 0  0
0 0  0
0 0  0
0 0  0
0 0  0
0 0  0
0 0  0
0 0  0
0 0  0
0 0  0
0 0  0
0 0  0
0 0  0
0 0  0
0 0  0
0 0  0
0 0  0
0 0  0
0 0  0
0 0  0
0 0  0
0 0  0
0 0  0
0 0  0
0 0  0
0 0  0
0 0  0
0 0  0
0 0  0
0 0  0
0 0  0
0 0  0
0 0  0
0 0  0
0 0  0
0 0  0
0 0  0
0 0  0
0 0  0
0 0  0
0 0  0
0 0  0
0 0  0
0 0  0
0 0  0
0 0  0
0 0  0
0 0  0
0 0  0
0 0  0
0 0  0
0 0  0
0 0  0
0 0  0
0 0  0
0 0  0
0 0  0
0 0  0
0 0  0
0 0  0
0 0  0
0 0  0
0 0  0
0 0  0
0 0  0
0 0  0
0 0  0
0 0  0
0 0  0
0 0  0
0 0  0
0 0  0
0 0  0
0 0  0
0 0  0
0 0  0
0 0  0
0 0  0
0 0  0
0 0  0
0 0  0
0 0  0
0 0  0
0 0  0
0 0  0
0 0  0
0 0  0
0 0  0
0 0  0
0 0  0
0 0  0
0 0  0
0 0  0
0 0  0
0 0  0
0 0  0
0 0  0
0 0  0
0 0  0
0 0  0
0 0  0
0 0  0
0 0  0
0 0  0
0 0  0
0 0  0
0 0  0
0 0  0
0 0  0
0 0  0
0 0  0
0 0  0
0 0  0
0 0  0
0 0  0
0 0  0
0 0  0
0 0  0
0 0  0
0 0  0
0 0  0
0 0  0
0 0  0
0 0  0
0 0  0
0 0  0
0 0  0
0 0  0
0 0  0
0 0  0
0 0  0
0 0  0
0 0  0
0 0  0
0 0  0
0 0  0
0 0  0
0 0  0
0 0  0
0 0  0
0 0  0
0 0  0
0 0  0
0 0  0
0 0  0
0 0  0
0 0  0
0 0  0
0 0  0
0 0  0
0 0  0
0 0  0
0 0  0
0 0  0
0 0  0
0 0  0
0 0  0
0 0  0
0 0  0
0 0  0
0 0  0
0 0  0
0 0  0
0 0  0
0 0  0
0 0  0
0 0  0
0 0  0
0 0  0
0 0  0
0 0  0
0 0  0
0 0  0
0 0  0
0 0  0
0 0  0
0 0  0
0 0  0
0 0  0
0 0  0
0 0  0
0 0  0
0 0  0
0 0  0
0 0  0
0 0  0
0 0  0
0 0  0
0 0  0
0 0  0
0 0  0
0 0  0
0 0  0
0 0  0
0 0  0
0 0  0
0 0  0
0 0  0
0 0  0
0 0  0
0 0  0
0 0  0
0 0  0
0 0  0
0 0  0
0 0  0
0 0  0
0 0  0
0 0  0
0 0  0
0 0  0
0 0  0
0 0  0
0 0  0
0 0  0
0 0  0
0 0  0
0 0  0
0 0  0
0 0  0
0 0  0
0 0  0
0 0  0
0 0  0
0 0  0
0 0  0
0 0  0
0 0  0
0 0  0
0 0  0
0 0  0
0 0  0
0 0  0
0 0  0
0 0  0
0 0  0
0 0  0
0 0  0
0 0  0
0 0  0
0 0  0
0 0  0
0 0  0
0 0  0
0 0  0
0 0  0
0 0  0
0 0  0
0 0  0
0 0  0
0 0  0
0 0  0
0 0  0
0 0  0
0 0  0
0 0  0
0 0  0
0 0  0
0 0  0
0 0  0
0 0  0
0 0  0
0 0  0
0 0  0
0 0  0
0 0  0
0 0  0
0 0  0
0 0  0
0 0  0
0 0  0
0 0  0
0 0  0
0 0  0
0 0  0
0 0  0
0 0  0
0 0  0
0 0  0
0 0  0
0 0  0
0 0  0

SCALARS pressure double 1
LOOKUP_TABLE default
0.757834
0.758016
0.754935
0.749044
0.738762
0.725864
0.713669
0.692822
0.66449
0.634138
0.608959
0.588199
0.572578
0.559102
0.547154
0.532108
0.514624
0.488023
0.452301
0.40932
0.382669
0.361829
0.356322
0.347216
0.349519
0.345635
0.350499
0.345926
0.351263
0.346136
0.350623
0.346916
0.349632
0.348879
0.349332
0.351137
0.349761
0.351585
0.349274
0.350853
0.348473
0.345246
0.336567
0.317267
0.2715
0.215014
0.195921
0.195487
0.162847
0.0778862
0.555213
0.554707
0.552178
0.546193
0.53832
0.530091
0.513972
0.492382
0.461465
0.424863
0.396529
0.378575
0.364702
0.354326
0.343286
0.332734
0.316829
0.292532
0.249878
0.190363
0.171414
0.147641
0.156325
0.137893
0.154544
0.136264
0.160953
0.133164
0.164342
0.134029
0.161282
0.139915
0.154116
0.148996
0.148385
0.156548
0.146608
0.158665
0.148175
0.156959
0.151253
0.15314
0.148594
0.140145
0.0919744
-0.0140426
-0.0160654
0.034876
-0.0105485
0
0.348832
0.349304
0.346567
0.343257
0.338005
0.331267
0.316352
0.296114
0.258238
0.200048
0.170768
0.159491
0.150656
0.14675
0.138043
0.136589
0.124094
0.109362
0.0611473
-0.0696689
-0.0311872
-0.0997376
-0.0111333
-0.10594
-0.00132161
-0.115356
0.0264815
-0.139622
0.0411193
-0.136393
0.0244705
-0.100816
-0.0164149
-0.0512167
-0.0559369
-0.015501
-0.072744
-0.00683426
-0.0661355
-0.0159322
-0.0499643
-0.0228672
-0.0319333
0
-0.00936346
0
0
0
0
0
0.140073
0.140984
0.138912
0.139129
0.134517
0.133505
0.121572
0.11327
0.0677224
-0.0545902
-0.0722754
-0.0604406
-0.0653612
-0.0543626
-0.0705543
-0.0477512
-0.06412
-0.0402374
-0.0451381
0
0
0
0
0
0
0
0
0
0
0
0
0
0
0
0
0
0
0
0
0
0
0
0
0
0
0
0
0
0
0
-0.0674411
-0.0638402
-0.0700046
-0.0580738
-0.0741809
-0.0510149
-0.0758838
-0.0309859
-0.0441804
0
0
0
0
0
0
0
0
0
0
0
0
0
0
0
0
0
0
0
0
0
0
0
0
0
0
0
0
0
0
0
0
0
0
0
0
0
0
0
0
0
0
0
0
0
0
0
0
0
0
0
0
0
0
0
0
0
0
0
0
0
0
0
0
0
0
0
0
0
0
0
0
0
0
0
0
0
0
0
0
0
0
0
0
0
0
0
0
0
0
0
0
0
0
0
0
0
0
0
0
0
0
0
0
0
0
0
0
0
0
0
0
0
0
0
0
0
0
0
0
0
0
0
0
0
0
0
0
0
0
0
0
0
0
0
0
0
0
0
0
0
0
0
0
0
0
0
0
0
0
0
0
0
0
0
0
0
0
0
0
0
0
0
0
0
0
0
0
0
0
0
0
0
0
0
0
0
0
0
0
0
0
0
0
0
0
0
0
0
0
0
0
0
0
0
0
0
0
0
0
0
0
0
0
0
0
0
0
0
0
0
0
0
0
0
0
0
0
0
0
0
0
0
0
0
0
0
0
0
0
0
0
0
0
0
0
0
0
0
0
0
0
0
0
0
0
0
0
0
0
0
0
0
0
0
0
0
0
0
0
0
0
0
0
0
0
0
0
0
0
0
0
0
0
0
0
0
0
0
0
0
0
0
0
0
0
0
0
0
0
0
0
0
0
0
0
0
0
0
0
0
0
0
0
0
0
0
0
0
0
0
0
0
0
0
0
0
0
0
0
0
0
0
0
0
0
0
0
0
0
0
0
0
0
0
0
0
0
0
0
0
0
0
0
0
0
0
0
0
0
0
0
0
0
0
0
0
0
0
0
0
0
0
0
0
0
0
0
0
0
0
0
0
0
0
0
0
0
0
0
0
0
0
0
0
0
0
0
0
0
0
0
0
0
0
0
0
0
0
0
0
0
0
0
0
0
0
0
0
0
0
0
0
0
0
0
0
0
0
0
0
0
0
0
0
0
0
0
0
0
0
0
0
0
0
0
0
0
0
0
0
0
0
0
0
0
0
0
0
0
0
0
0
0
0
0
0
0
0
0
0
0
0
0
0
0
0
0
0
0
0
0
0
0
0
0
0
0
0
0
0
0
0
0
0
0
0
0
0
0
0
0
0
0
0
0
0
0
0
0
0
0
0
0
0
0
0
0
0
0
0
0
0
0
0
0
0
0
0
0
0
0
0
0
0
0
0
0
0
0
0
0
0
0
0
0
0
0
0
0
0
0
0
0
0
0
0
0
0
0
0
0
0
0
0
0
0
0
0
0
0
0
0
0
0
0
0
0
0
0
0
0
0
0
0
0
0
0
0
0
0
0
0
0
0
0
0
0
0
0
0
0
0
0
0
0
0
0
0
0
0
0
0
0
0
0
0
0
0
0
0
0
0
0
0
0
0
0
0
0
0
0
0
0
0
0
0
0
0
0
0
0
0
0
0
0
0
0
0
0
0
0
0
0
0
0
0
0
0
0
0
0
0
0
0
0
0
0
0
0
0
0
0
0
0
0
0
0
0
0
0
0
0
0
0
0
0
0
0
0
0
0
0
0
0
0
0
0
0
0
0
0
0
0
0
0
0
0
0
0
0
0
0
0
0
0
0
0
0
0
0
0
0
0
0
0
0
0
0
0
0
0
0
0
0
0
0
0
0
0
0
0
0
0
0
0
0
0
0
0
0
0
0
0
0
0
0
0
0
0
0
0
0
0
0
0
0
0
0
0
0
0
0
0
0
0
0
0
0
0
0
0
0
0
0
0
0
0
0
0
0
0
0
0
0
0
0
0
0
0
0
SCALARS rhs double 1
LOOKUP_TABLE default
-5.28624
-5.26584
-5.2136
-5.25845
-5.13472
-4.92193
-5.24905
-5.2377
-5.14769
-5.13024
-5.20964
-5.13981
-5.1362
-5.10955
-5.16186
-5.06482
-5.16804
-5.12003
-5.23964
-5.07472
-5.13115
-4.97668
-5.08867
-4.94776
-5.03289
-5.01135
-4.98068
-5.06702
-4.93903
-5.06086
-4.93977
-5.01502
-4.97373
-4.97046
-4.9976
-4.95063
-4.97872
-4.94318
-4.93903
-4.91495
-4.97849
-4.93264
-4.9595
-5.0922
-4.75798
-4.78865
-4.8367
-4.81624
-5.64171
0.786108
-0.180402
-0.0825094
-0.164664
-0.0278442
-0.00471785
-0.259146
-0.0897061
-0.109148
-0.15783
-0.156694
-0.0842314
-0.11379
-0.0763992
-0.070764
-0.0375016
-0.0268158
-0.104373
-0.133808
-0.096789
0.0156014
0.0715033
0.00327814
0.12075
0.0225462
0.103779
0.0130225
0.0743307
-0.036992
0.0659339
-0.0271419
0.104161
0.0427914
0.142547
0.103417
0.13164
0.131074
0.11651
0.148655
0.142978
0.149455
0.109495
0.23601
0.0811779
-0.0627149
0.507452
1.71637
1.27376
0.72669
1.42057
0
-0.0885709
-0.133502
-0.055242
-0.0594038
-0.108005
-0.174499
-0.0537996
-0.0948079
-0.180301
-0.0205384
0.0230911
0.0491342
0.0643381
0.0636491
0.0815679
0.0308207
0.052184
0.0106106
-0.0087781
0.526426
0.822285
3.28798
2.68548
2.58794
3.29793
6.60936
6.63098
6.4737
14.638
14.8235
13.78
12.3792
10.4509
8.3719
8.72156
9.8037
9.78928
7.80515
3.85148
3.82175
3.61084
1.91394
0.620797
1.54869
0.311217
-0.644364
0.907857
0.786108
0
0
0.0453028
0.0327246
0.0480494
0.0531588
-0.0218705
0.0659572
0.0340218
0.0364865
0.0552179
1.58799
1.23288
0.0330889
3.16426
2.8232
7.92779
10.1089
11.821
14.6823
35.4899
28.0565
20.5298
16.247
13.5584
10.8402
10.7865
8.4957
6.05141
2.40646
0
0
0
0
0
0
0
0
0
0
0
0
0
0
0
0
0
0
0
0
0
0
3.74722
3.71979
3.83364
3.79223
3.19021
2.72713
2.76768
3.50074
4.93377
7.83712
7.96544
8.66736
9.26158
8.97228
43.8307
32.8547
19.5017
9.00999
0
0
0
0
0
0
0
0
0
0
0
0
0
0
0
0
0
0
0
0
0
0
0
0
0
0
0
0
0
0
0
0
6.36602
6.31525
5.9657
5.40632
4.81609
4.65051
4.54086
5.49725
6.68708
4.04255
4.68643
4.81997
12.4974
35.3186
0
0
0
0
0
0
0
0
0
0
0
0
0
0
0
0
0
0
0
0
0
0
0
0
0
0
0
0
0
0
0
0
0
0
0
0
1.47614
1.54411
2.09799
2.47435
3.77929
5.12603
6.33856
5.10183
2.09579
1.47098
2.53607
14.3387
26.3021
0
0
0
0
0
0
0
0
0
0
0
0
0
0
0
0
0
0
0
0
0
0
0
0
0
0
0
0
0
0
0
0
0
0
0
0
0
2.59543
2.54951
1.62039
1.22694
0.49828
0.777197
0.916648
3.70181
7.89906
8.9678
11.6117
27.2717
0
0
0
0
0
0
0
0
0
0
0
0
0
0
0
0
0
0
0
0
0
0
0
0
0
0
0
0
0
0
0
0
0
0
0
0
0
0
2.45787
2.59584
4.01582
4.53242
6.43299
7.47839
9.23983
7.89527
5.98596
8.49533
41.2731
0
0
0
0
0
0
0
0
0
0
0
0
0
0
0
0
0
0
0
0
0
0
0
0
0
0
0
0
0
0
0
0
0
0
0
0
0
0
0
9.36633
9.33066
8.04142
9.25902
7.69325
7.78758
9.09454
10.208
11.1703
21.7759
3.2041
0
0
0
0
0
0
0
0
0
0
0
0
0
0
0
0
0
0
0
0
0
0
0
0
0
0
0
0
0
0
0
0
0
0
0
0
0
0
0
7.92952
10.0992
10.1145
8.86149
11.2589
12.4355
10.8064
8.57914
8.60392
43.2779
0
0
0
0
0
0
0
0
0
0
0
0
0
0
0
0
0
0
0
0
0
0
0
0
0
0
0
0
0
0
0
0
0
0
0
0
0
0
0
0
13.2058
10.8439
11.0393
13.0106
10.7272
10.2862
9.48307
9.57063
8.67562
33.2233
0
0
0
0
0
0
0
0
0
0
0
0
0
0
0
0
0
0
0
0
0
0
0
0
0
0
0
0
0
0
0
0
0
0
0
0
0
0
0
0
8.71388
9.82855
9.83715
7.65861
8.9401
7.02241
6.34758
6.44313
5.90605
26.1906
0
0
0
0
0
0
0
0
0
0
0
0
0
0
0
0
0
0
0
0
0
0
0
0
0
0
0
0
0
0
0
0
0
0
0
0
0
0
0
0
7.061
5.55892
5.71513
6.83869
5.56628
5.6724
5.42452
5.43401
4.26976
17.1298
0
0
0
0
0
0
0
0
0
0
0
0
0
0
0
0
0
0
0
0
0
0
0
0
0
0
0
0
0
0
0
0
0
0
0
0
0
0
0
0
6.55202
6.55536
6.55982
5.31204
5.40986
6.30896
5.08555
5.09432
5.2091
10.3371
0
0
0
0
0
0
0
0
0
0
0
0
0
0
0
0
0
0
0
0
0
0
0
0
0
0
0
0
0
0
0
0
0
0
0
0
0
0
0
0
5.52783
5.53996
5.54196
5.54121
5.54439
4.52522
5.16545
5.22779
16.4546
0
0
0
0
0
0
0
0
0
0
0
0
0
0
0
0
0
0
0
0
0
0
0
0
0
0
0
0
0
0
0
0
0
0
0
0
0
0
0
0
0
3.60674
3.66202
3.98033
3.98143
3.98244
3.98396
3.23505
3.31189
11.5415
0
0
0
0
0
0
0
0
0
0
0
0
0
0
0
0
0
0
0
0
0
0
0
0
0
0
0
0
0
0
0
0
0
0
0
0
0
0
0
0
0
6.01719
6.36025
5.75447
5.75462
5.75506
5.75536
5.75588
5.76119
8.30564
0
0
0
0
0
0
0
0
0
0
0
0
0
0
0
0
0
0
0
0
0
0
0
0
0
0
0
0
0
0
0
0
0
0
0
0
0
0
0
0
0
3.29611
2.74112
2.74112
2.74112
2.74112
2.74112
2.74112
2.74112
2.74112
0
0
0
0
0
0
0
0
0
0
0
0
0
0
0
0
0
0
0
0
0
0
0
0
0
0
0
0
0
0
0
0
0
0
0
0
0
0
0
0
0
0
0
0
0
0
0
0
0
0
0
0
0
0
0
0
0
0
0
0
0
0
0
0
0
0
0
0
0
0
0
0
0
0
0
0
0
0
0
0
0
0
0
0
0
0
0
0
0
0
0
