# vtk DataFile Version 4.0
Nusif Fluid VTK output
ASCII
DATASET STRUCTURED_POINTS
DIMENSIONS 50 20 1
ORIGIN 0 0 0 
SPACING 0.2 0.2 1
POINT_DATA 1000 

VECTORS velocity double
0.034861 -0.0365003  0
0.104109 -0.0360029  0
0.171843 -0.0349627  0
0.237891 -0.0343113  0
0.302636 -0.0336611  0
0.3664 -0.033332  0
0.429614 -0.0331117  0
0.492643 -0.0331638  0
0.555782 -0.0332235  0
0.618848 -0.0330656  0
0.68153 -0.0328426  0
0.743887 -0.0327337  0
0.806193 -0.032773  0
0.868804 -0.033069  0
0.932438 -0.0337738  0
0.99818 -0.0351666  0
1.06646 -0.0363148  0
1.13393 -0.0343709  0
1.19661 -0.0315083  0
1.25307 -0.02817  0
1.30424 -0.0261948  0
1.35204 -0.0248092  0
1.39936 -0.0257141  0
1.44654 -0.0246636  0
1.49393 -0.0259425  0
1.54036 -0.0236705  0
1.58665 -0.0258458  0
1.63225 -0.022935  0
1.67869 -0.0267309  0
1.72516 -0.0229291  0
1.77251 -0.0276253  0
1.81951 -0.0225803  0
1.86593 -0.0270325  0
1.91142 -0.0216748  0
1.95487 -0.0249668  0
1.99787 -0.021243  0
2.03873 -0.0228172  0
2.08023 -0.0219374  0
2.12025 -0.0213319  0
2.16099 -0.0225652  0
2.20037 -0.0200143  0
2.23916 -0.0220252  0
2.27708 -0.0190342  0
2.31485 -0.0219346  0
2.35566 -0.022129  0
2.40366 -0.0290481  0
2.46459 -0.0350766  0
2.524 -0.0275421  0
2.55768 -0.00933369  0
2.56541 -0.00342095  0
0.0350182 -0.109626  0
0.104429 -0.107999  0
0.171717 -0.104416  0
0.236828 -0.102439  0
0.300559 -0.10044  0
0.363291 -0.0994658  0
0.425477 -0.098823  0
0.487494 -0.0989435  0
0.549618 -0.0991434  0
0.61162 -0.0986301  0
0.673157 -0.097904  0
0.734208 -0.097513  0
0.795066 -0.097563  0
0.856237 -0.098457  0
0.91847 -0.100681  0
0.983822 -0.105739  0
1.05415 -0.110782  0
1.12049 -0.100079  0
1.17926 -0.0936693  0
1.23451 -0.0841043  0
1.28534 -0.0786897  0
1.33376 -0.0749175  0
1.38215 -0.0777287  0
1.43067 -0.0747571  0
1.4795 -0.0784513  0
1.52756 -0.0720827  0
1.57545 -0.0779789  0
1.62245 -0.0698504  0
1.66977 -0.0799389  0
1.71669 -0.0695537  0
1.764 -0.0820349  0
1.81087 -0.0684653  0
1.85725 -0.0803395  0
1.90277 -0.0657839  0
1.94663 -0.0745803  0
1.98981 -0.0641974  0
2.03104 -0.0683863  0
2.07242 -0.0656982  0
2.11239 -0.063969  0
2.15268 -0.0673334  0
2.19174 -0.0600784  0
2.23038 -0.0657975  0
2.26798 -0.057205  0
2.30513 -0.0650524  0
2.34358 -0.0646878  0
2.38521 -0.082529  0
2.43669 -0.100408  0
2.49185 -0.0831864  0
2.52372 -0.02403  0
2.52908 -0.00684189  0
0.0349015 -0.182756  0
0.103797 -0.17958  0
0.17017 -0.172885  0
0.233987 -0.16929  0
0.296212 -0.165944  0
0.357462 -0.164332  0
0.418177 -0.163267  0
0.478625 -0.163364  0
0.539012 -0.163603  0
0.599201 -0.162751  0
0.65896 -0.161476  0
0.718288 -0.160697  0
0.777238 -0.160614  0
0.836155 -0.161849  0
0.895721 -0.165504  0
0.958409 -0.175351  0
1.02801 -0.187506  0
1.09203 -0.158494  0
1.14723 -0.152446  0
1.19878 -0.135295  0
1.26251 -0.145289  0
1.30786 -0.10527  0
1.36705 -0.158167  0
1.40998 -0.0889775  0
1.47055 -0.176795  0
1.50956 -0.0640596  0
1.57241 -0.199877  0
1.6078 -0.0336148  0
1.67006 -0.228887  0
1.70452 -0.00524526  0
1.76025 -0.252547  0
1.80125 0.0109543  0
1.8428 -0.250892  0
1.8984 0.000465725  0
1.92273 -0.21224  0
1.99284 -0.0430111  0
2.00562 -0.146818  0
2.07879 -0.105012  0
2.0919 -0.0808897  0
2.15341 -0.155433  0
2.178 -0.0388222  0
2.22153 -0.172382  0
2.26053 -0.0305055  0
2.29094 -0.162478  0
2.33866 -0.0565971  0
2.35428 -0.151094  0
2.39335 -0.125604  0
2.38829 -0.111288  0
2.44741 -0.0703406  0
2.51025 -0.00342095  0
0.0329059 -0.252167  0
0.0998116 -0.249169  0
0.164768 -0.237819  0
0.228393 -0.234993  0
0.290969 -0.228236  0
0.351393 -0.226915  0
0.411699 -0.224899  0
0.471115 -0.224796  0
0.530049 -0.224671  0
0.588527 -0.223546  0
0.646809 -0.221939  0
0.705227 -0.221144  0
0.762298 -0.21941  0
0.820499 -0.223363  0
0.874328 -0.220581  0
0.922439 -0.234278  0
0.947161 -0.226077  0
1.03063 -0.205825  0
1.13381 -0.0902853  0
1.20129 -0.0793609  0
1.23831 -0.0927939  0
1.32122 -0.0551617  0
1.35077 -0.106152  0
1.42811 -0.038884  0
1.44731 -0.124286  0
1.53302 -0.0156474  0
1.54346 -0.147743  0
1.63574 0.0133006  0
1.64198 -0.175679  0
1.72698 0.0413794  0
1.74479 -0.198137  0
1.8007 0.0568393  0
1.85507 -0.197585  0
1.86344 0.0445748  0
1.96736 -0.162627  0
1.93146 -5.6726e-05  0
2.06682 -0.101249  0
2.0158 -0.0612511  0
2.14131 -0.0382526  0
2.11392 -0.110665  0
2.19595 0.00124188  0
2.21511 -0.128609  0
2.25129 0.00766522  0
2.31264 -0.119361  0
2.31692 -0.0140383  0
2.40051 -0.0976136  0
2.35138 -0.0602725  0
2.38366 -0.0556442  0
1.19415 -0.0556442  0
0 0  0
0.0319538 -0.142536  0
0.0916631 -0.141584  0
0.157015 -0.134388  0
0.223077 -0.133831  0
0.285854 -0.129072  0
0.349666 -0.128716  0
0.410195 -0.127344  0
0.47076 -0.127212  0
0.529196 -0.126988  0
0.587063 -0.126359  0
0.645676 -0.125524  0
0.703288 -0.125226  0
0.763972 -0.123585  0
0.818898 -0.126901  0
0.876926 -0.121985  0
0.913492 -0.1295  0
0.930699 -0.113038  0
0.47358 -0.113038  0
0 0  0
0 0  0
0 0  0
0 0  0
0 0  0
0 0  0
0 0  0
0 0  0
0 0  0
0 0  0
0 0  0
0 0  0
0 0  0
0 0  0
0 0  0
0 0  0
0 0  0
0 0  0
0 0  0
0 0  0
0 0  0
0 0  0
0 0  0
0 0  0
0 0  0
0 0  0
0 0  0
0 0  0
0 0  0
0 0  0
0 0  0
0 0  0
0 0  0
0 0  0
0 0  0
0 0  0
0 0  0
0 0  0
0 0  0
0 0  0
0 0  0
0 0  0
0 0  0
0 0  0
0 0  0
0 0  0
0 0  0
0 0  0
0 0  0
0 0  0
0 0  0
0 0  0
0 0  0
0 0  0
0 0  0
0 0  0
0 0  0
0 0  0
0 0  0
0 0  0
0 0  0
0 0  0
0 0  0
0 0  0
0 0  0
0 0  0
0 0  0
0 0  0
0 0  0
0 0  0
0 0  0
0 0  0
0 0  0
0 0  0
0 0  0
0 0  0
0 0  0
0 0  0
0 0  0
0 0  0
0 0  0
0 0  0
0 0  0
0 0  0
0 0  0
0 0  0
0 0  0
0 0  0
0 0  0
0 0  0
0 0  0
0 0  0
0 0  0
0 0  0
0 0  0
0 0  0
0 0  0
0 0  0
0 0  0
0 0  0
0 0  0
0 0  0
0 0  0
0 0  0
0 0  0
0 0  0
0 0  0
0 0  0
0 0  0
0 0  0
0 0  0
0 0  0
0 0  0
0 0  0
0 0  0
0 0  0
0 0  0
0 0  0
0 0  0
0 0  0
0 0  0
0 0  0
0 0  0
0 0  0
0 0  0
0 0  0
0 0  0
0 0  0
0 0  0
0 0  0
0 0  0
0 0  0
0 0  0
0 0  0
0 0  0
0 0  0
0 0  0
0 0  0
0 0  0
0 0  0
0 0  0
0 0  0
0 0  0
0 0  0
0 0  0
0 0  0
0 0  0
0 0  0
0 0  0
0 0  0
0 0  0
0 0  0
0 0  0
0 0  0
0 0  0
0 0  0
0 0  0
0 0  0
0 0  0
0 0  0
0 0  0
0 0  0
0 0  0
0 0  0
0 0  0
0 0  0
0 0  0
0 0  0
0 0  0
0 0  0
0 0  0
0 0  0
0 0  0
0 0  0
0 0  0
0 0  0
0 0  0
0 0  0
0 0  0
0 0  0
0 0  0
0 0  0
0 0  0
0 0  0
0 0  0
0 0  0
0 0  0
0 0  0
0 0  0
0 0  0
0 0  0
0 0  0
0 0  0
0 0  0
0 0  0
0 0  0
0 0  0
0 0  0
0 0  0
0 0  0
0 0  0
0 0  0
0 0  0
0 0  0
0 0  0
0 0  0
0 0  0
0 0  0
0 0  0
0 0  0
0 0  0
0 0  0
0 0  0
0 0  0
0 0  0
0 0  0
0 0  0
0 0  0
0 0  0
0 0  0
0 0  0
0 0  0
0 0  0
0 0  0
0 0  0
0 0  0
0 0  0
0 0  0
0 0  0
0 0  0
0 0  0
0 0  0
0 0  0
0 0  0
0 0  0
0 0  0
0 0  0
0 0  0
0 0  0
0 0  0
0 0  0
0 0  0
0 0  0
0 0  0
0 0  0
0 0  0
0 0  0
0 0  0
0 0  0
0 0  0
0 0  0
0 0  0
0 0  0
0 0  0
0 0  0
0 0  0
0 0  0
0 0  0
0 0  0
0 0  0
0 0  0
0 0  0
0 0  0
0 0  0
0 0  0
0 0  0
0 0  0
0 0  0
0 0  0
0 0  0
0 0  0
0 0  0
0 0  0
0 0  0
0 0  0
0 0  0
0 0  0
0 0  0
0 0  0
0 0  0
0 0  0
0 0  0
0 0  0
0 0  0
0 0  0
0 0  0
0 0  0
0 0  0
0 0  0
0 0  0
0 0  0
0 0  0
0 0  0
0 0  0
0 0  0
0 0  0
0 0  0
0 0  0
0 0  0
0 0  0
0 0  0
0 0  0
0 0  0
0 0  0
0 0  0
0 0  0
0 0  0
0 0  0
0 0  0
0 0  0
0 0  0
0 0  0
0 0  0
0 0  0
0 0  0
0 0  0
0 0  0
0 0  0
0 0  0
0 0  0
0 0  0
0 0  0
0 0  0
0 0  0
0 0  0
0 0  0
0 0  0
0 0  0
0 0  0
0 0  0
0 0  0
0 0  0
0 0  0
0 0  0
0 0  0
0 0  0
0 0  0
0 0  0
0 0  0
0 0  0
0 0  0
0 0  0
0 0  0
0 0  0
0 0  0
0 0  0
0 0  0
0 0  0
0 0  0
0 0  0
0 0  0
0 0  0
0 0  0
0 0  0
0 0  0
0 0  0
0 0  0
0 0  0
0 0  0
0 0  0
0 0  0
0 0  0
0 0  0
0 0  0
0 0  0
0 0  0
0 0  0
0 0  0
0 0  0
0 0  0
0 0  0
0 0  0
0 0  0
0 0  0
0 0  0
0 0  0
0 0  0
0 0  0
0 0  0
0 0  0
0 0  0
0 0  0
0 0  0
0 0  0
0 0  0
0 0  0
0 0  0
0 0  0
0 0  0
0 0  0
0 0  0
0 0  0
0 0  0
0 0  0
0 0  0
0 0  0
0 0  0
0 0  0
0 0  0
0 0  0
0 0  0
0 0  0
0 0  0
0 0  0
0 0  0
0 0  0
0 0  0
0 0  0
0 0  0
0 0  0
0 0  0
0 0  0
0 0  0
0 0  0
0 0  0
0 0  0
0 0  0
0 0  0
0 0  0
0 0  0
0 0  0
0 0  0
0 0  0
0 0  0
0 0  0
0 0  0
0 0  0
0 0  0
0 0  0
0 0  0
0 0  0
0 0  0
0 0  0
0 0  0
0 0  0
0 0  0
0 0  0
0 0  0
0 0  0
0 0  0
0 0  0
0 0  0
0 0  0
0 0  0
0 0  0
0 0  0
0 0  0
0 0  0
0 0  0
0 0  0
0 0  0
0 0  0
0 0  0
0 0  0
0 0  0
0 0  0
0 0  0
0 0  0
0 0  0
0 0  0
0 0  0
0 0  0
0 0  0
0 0  0
0 0  0
0 0  0
0 0  0
0 0  0
0 0  0
0 0  0
0 0  0
0 0  0
0 0  0
0 0  0
0 0  0
0 0  0
0 0  0
0 0  0
0 0  0
0 0  0
0 0  0
0 0  0
0 0  0
0 0  0
0 0  0
0 0  0
0 0  0
0 0  0
0 0  0
0 0  0
0 0  0
0 0  0
0 0  0
0 0  0
0 0  0
0 0  0
0 0  0
0 0  0
0 0  0
0 0  0
0 0  0
0 0  0
0 0  0
0 0  0
0 0  0
0 0  0
0 0  0
0 0  0
0 0  0
0 0  0
0 0  0
0 0  0
0 0  0
0 0  0
0 0  0
0 0  0
0 0  0
0 0  0
0 0  0
0 0  0
0 0  0
0 0  0
0 0  0
0 0  0
0 0  0
0 0  0
0 0  0
0 0  0
0 0  0
0 0  0
0 0  0
0 0  0
0 0  0
0 0  0
0 0  0
0 0  0
0 0  0
0 0  0
0 0  0
0 0  0
0 0  0
0 0  0
0 0  0
0 0  0
0 0  0
0 0  0
0 0  0
0 0  0
0 0  0
0 0  0
0 0  0
0 0  0
0 0  0
0 0  0
0 0  0
0 0  0
0 0  0
0 0  0
0 0  0
0 0  0
0 0  0
0 0  0
0 0  0
0 0  0
0 0  0
0 0  0
0 0  0
0 0  0
0 0  0
0 0  0
0 0  0
0 0  0
0 0  0
0 0  0
0 0  0
0 0  0
0 0  0
0 0  0
0 0  0
0 0  0
0 0  0
0 0  0
0 0  0
0 0  0
0 0  0
0 0  0
0 0  0
0 0  0
0 0  0
0 0  0
0 0  0
0 0  0
0 0  0
0 0  0
0 0  0
0 0  0
0 0  0
0 0  0
0 0  0
0 0  0
0 0  0
0 0  0
0 0  0
0 0  0
0 0  0
0 0  0
0 0  0
0 0  0
0 0  0
0 0  0
0 0  0
0 0  0
0 0  0
0 0  0
0 0  0
0 0  0
0 0  0
0 0  0
0 0  0
0 0  0
0 0  0
0 0  0
0 0  0
0 0  0
0 0  0
0 0  0
0 0  0
0 0  0
0 0  0
0 0  0
0 0  0
0 0  0
0 0  0
0 0  0
0 0  0
0 0  0
0 0  0
0 0  0
0 0  0
0 0  0
0 0  0
0 0  0
0 0  0
0 0  0
0 0  0
0 0  0
0 0  0
0 0  0
0 0  0
0 0  0
0 0  0
0 0  0
0 0  0
0 0  0
0 0  0
0 0  0
0 0  0
0 0  0
0 0  0
0 0  0
0 0  0
0 0  0
0 0  0
0 0  0
0 0  0
0 0  0
0 0  0
0 0  0
0 0  0
0 0  0
0 0  0
0 0  0
0 0  0
0 0  0
0 0  0
0 0  0
0 0  0
0 0  0
0 0  0
0 0  0
0 0  0
0 0  0
0 0  0
0 0  0
0 0  0
0 0  0
0 0  0
0 0  0
0 0  0
0 0  0
0 0  0
0 0  0
0 0  0
0 0  0
0 0  0
0 0  0
0 0  0
0 0  0
0 0  0
0 0  0
0 0  0
0 0  0
0 0  0
0 0  0
0 0  0
0 0  0
0 0  0
0 0  0
0 0  0
0 0  0
0 0  0
0 0  0
0 0  0
0 0  0
0 0  0
0 0  0
0 0  0
0 0  0
0 0  0
0 0  0
0 0  0
0 0  0
0 0  0
0 0  0
0 0  0
0 0  0
0 0  0
0 0  0
0 0  0
0 0  0
0 0  0
0 0  0
0 0  0
0 0  0
0 0  0
0 0  0
0 0  0
0 0  0
0 0  0
0 0  0
0 0  0
0 0  0
0 0  0
0 0  0
0 0  0
0 0  0
0 0  0
0 0  0
0 0  0
0 0  0
0 0  0
0 0  0
0 0  0
0 0  0
0 0  0
0 0  0
0 0  0
0 0  0
0 0  0
0 0  0
0 0  0
0 0  0
0 0  0
0 0  0
0 0  0
0 0  0
0 0  0
0 0  0
0 0  0
0 0  0
0 0  0
0 0  0
0 0  0
0 0  0
0 0  0
0 0  0
0 0  0
0 0  0
0 0  0
0 0  0
0 0  0
0 0  0

SCALARS pressure double 1
LOOKUP_TABLE default
0.517247
0.518764
0.519325
0.519514
0.519288
0.518974
0.518385
0.517654
0.51688
0.515732
0.513273
0.509842
0.50407
0.494914
0.480934
0.459546
0.428337
0.391023
0.363762
0.347697
0.340727
0.334164
0.335766
0.331682
0.337687
0.333016
0.343273
0.336837
0.35106
0.341154
0.356983
0.342629
0.356055
0.340104
0.348275
0.337385
0.340054
0.338782
0.336739
0.343058
0.336513
0.344264
0.336409
0.341155
0.332935
0.329273
0.307648
0.262952
0.208425
0.192491
0.319929
0.321346
0.321644
0.322139
0.322046
0.321979
0.321545
0.321276
0.320808
0.319695
0.317901
0.314841
0.310108
0.30311
0.290388
0.270822
0.23462
0.182305
0.155061
0.143836
0.145826
0.132493
0.147263
0.127831
0.154658
0.124159
0.166992
0.121817
0.182461
0.120622
0.19441
0.120287
0.192738
0.122315
0.174756
0.131046
0.151449
0.147654
0.135801
0.163342
0.1303
0.168162
0.131081
0.162701
0.134585
0.151206
0.133198
0.082065
-0.0182055
0
0.12439
0.126505
0.125904
0.128064
0.127879
0.128422
0.128434
0.128505
0.128525
0.127763
0.126985
0.125472
0.122479
0.119774
0.110796
0.10035
0.0592199
-0.0494495
-0.0623085
-0.0696644
-0.0231255
-0.0955099
0.00368755
-0.122793
0.0383028
-0.161726
0.0843573
-0.208229
0.135868
-0.252014
0.173656
-0.268184
0.167293
-0.230099
0.100735
-0.137452
-0.00418275
-0.0263883
-0.0998363
0.0530761
-0.147112
0.0746261
-0.141121
0.0514597
-0.103917
0.0150316
0
-0.0306271
0
0
-0.0699524
-0.0631937
-0.0697131
-0.0598127
-0.0629923
-0.0602524
-0.0603411
-0.059616
-0.0592526
-0.0591644
-0.0585473
-0.0580836
-0.0599746
-0.0529343
-0.0622957
-0.0360696
-0.0435527
0
0
0
0
0
0
0
0
0
0
0
0
0
0
0
0
0
0
0
0
0
0
0
0
0
0
0
0
0
0
0
0
0
0
0
0
0
0
0
0
0
0
0
0
0
0
0
0
0
0
0
0
0
0
0
0
0
0
0
0
0
0
0
0
0
0
0
0
0
0
0
0
0
0
0
0
0
0
0
0
0
0
0
0
0
0
0
0
0
0
0
0
0
0
0
0
0
0
0
0
0
0
0
0
0
0
0
0
0
0
0
0
0
0
0
0
0
0
0
0
0
0
0
0
0
0
0
0
0
0
0
0
0
0
0
0
0
0
0
0
0
0
0
0
0
0
0
0
0
0
0
0
0
0
0
0
0
0
0
0
0
0
0
0
0
0
0
0
0
0
0
0
0
0
0
0
0
0
0
0
0
0
0
0
0
0
0
0
0
0
0
0
0
0
0
0
0
0
0
0
0
0
0
0
0
0
0
0
0
0
0
0
0
0
0
0
0
0
0
0
0
0
0
0
0
0
0
0
0
0
0
0
0
0
0
0
0
0
0
0
0
0
0
0
0
0
0
0
0
0
0
0
0
0
0
0
0
0
0
0
0
0
0
0
0
0
0
0
0
0
0
0
0
0
0
0
0
0
0
0
0
0
0
0
0
0
0
0
0
0
0
0
0
0
0
0
0
0
0
0
0
0
0
0
0
0
0
0
0
0
0
0
0
0
0
0
0
0
0
0
0
0
0
0
0
0
0
0
0
0
0
0
0
0
0
0
0
0
0
0
0
0
0
0
0
0
0
0
0
0
0
0
0
0
0
0
0
0
0
0
0
0
0
0
0
0
0
0
0
0
0
0
0
0
0
0
0
0
0
0
0
0
0
0
0
0
0
0
0
0
0
0
0
0
0
0
0
0
0
0
0
0
0
0
0
0
0
0
0
0
0
0
0
0
0
0
0
0
0
0
0
0
0
0
0
0
0
0
0
0
0
0
0
0
0
0
0
0
0
0
0
0
0
0
0
0
0
0
0
0
0
0
0
0
0
0
0
0
0
0
0
0
0
0
0
0
0
0
0
0
0
0
0
0
0
0
0
0
0
0
0
0
0
0
0
0
0
0
0
0
0
0
0
0
0
0
0
0
0
0
0
0
0
0
0
0
0
0
0
0
0
0
0
0
0
0
0
0
0
0
0
0
0
0
0
0
0
0
0
0
0
0
0
0
0
0
0
0
0
0
0
0
0
0
0
0
0
0
0
0
0
0
0
0
0
0
0
0
0
0
0
0
0
0
0
0
0
0
0
0
0
0
0
0
0
0
0
0
0
0
0
0
0
0
0
0
0
0
0
0
0
0
0
0
0
0
0
0
0
0
0
0
0
0
0
0
0
0
0
0
0
0
0
0
0
0
0
0
0
0
0
0
0
0
0
0
0
0
0
0
0
0
0
0
0
0
0
0
0
0
0
0
0
0
0
0
0
0
0
0
0
0
0
0
0
0
0
0
0
0
0
0
0
0
0
0
0
0
0
0
0
0
0
0
0
0
0
0
0
0
0
0
0
0
0
0
0
0
0
0
0
0
0
0
0
0
0
0
0
0
0
0
0
0
0
0
0
0
0
0
0
0
0
0
0
0
0
0
0
0
0
0
0
0
0
0
0
0
0
0
0
0
0
0
0
0
0
0
0
0
0
0
0
0
0
0
0
0
0
0
0
0
0
0
0
0
0
0
0
0
0
0
0
0
0
0
0
0
0
0
0
0
0
0
0
0
0
0
0
0
0
0
0
0
0
0
0
0
0
0
0
0
0
0
0
0
0
0
0
0
0
0
0
0
0
0
0
0
0
0
0
0
0
0
0
0
0
0
0
0
0
0
0
0
0
0
0
0
0
0
0
0
0
SCALARS rhs double 1
LOOKUP_TABLE default
-4.90465
-4.96316
-4.95497
-4.94729
-4.93734
-4.93446
-4.92905
-4.91729
-4.91607
-4.93421
-4.91427
-4.93241
-4.93458
-4.92219
-4.94406
-4.96784
-4.99011
-4.9768
-4.92754
-4.8817
-4.84892
-4.85239
-4.84077
-4.85692
-4.83367
-4.85292
-4.82545
-4.85282
-4.82902
-4.85653
-4.83341
-4.85098
-4.82824
-4.83449
-4.81837
-4.81846
-4.81412
-4.80956
-4.81481
-4.80361
-4.80736
-4.7952
-4.80196
-4.80097
-4.84189
-4.8971
-4.93924
-4.76829
-4.70102
-4.41387
0.0781878
0.0364163
0.0549036
0.0677278
0.0771516
0.0805291
0.0902765
0.0930531
0.0740123
0.0921016
0.0784017
0.0974252
0.102346
0.0770485
0.0897199
0.0567813
0.0306424
0.0899078
0.139339
0.141483
0.207467
0.106878
0.204424
0.0479956
0.180851
-0.0515568
0.11582
-0.221675
-0.00429757
-0.432798
-0.122262
-0.523175
-0.0908149
-0.324426
0.108456
0.0305837
0.2289
0.218938
0.13405
0.199918
0.0173763
0.176634
0.0393597
0.201248
0.110019
0.178108
0.204648
0.476915
3.02305
1.60248
0.0822684
0.0621461
0.0727166
0.0972473
0.101201
0.108333
0.112108
0.112911
0.100476
0.118617
0.118521
0.115553
0.124156
0.123937
0.112206
0.0968663
0.1203
0.452168
-0.453306
2.1289
2.42476
4.89046
4.28796
4.19041
4.9004
8.21183
8.23345
8.07617
16.2405
16.426
15.3825
13.9817
12.0533
9.97438
10.324
11.4062
11.3918
9.40763
5.45396
5.42423
5.21331
3.51642
2.22327
3.15117
1.91369
-0.0348952
0.624287
1.18629
0
0
-0.750132
-0.727949
-0.65337
-0.592561
-0.461256
-0.368886
0.742996
0.742734
1.6577
3.19046
2.83536
1.63557
4.76674
4.42567
9.53027
11.7113
13.4235
15.7691
35.7955
28.0565
20.5298
16.247
13.5584
10.8402
10.7865
8.4957
6.05141
2.40646
0
0
0
0
0
0
0
0
0
0
0
0
0
0
0
0
0
0
0
0
0
0
5.36272
5.33529
5.71969
5.67828
4.75936
4.29628
3.76069
4.49375
4.93377
7.83712
7.96544
8.66736
9.26158
8.97228
43.8307
32.8547
19.5017
9.00999
0
0
0
0
0
0
0
0
0
0
0
0
0
0
0
0
0
0
0
0
0
0
0
0
0
0
0
0
0
0
0
0
6.36602
6.31525
5.9657
5.40632
4.81609
4.65051
4.54086
5.49725
6.68708
4.04255
4.68643
4.81997
12.4974
35.3186
0
0
0
0
0
0
0
0
0
0
0
0
0
0
0
0
0
0
0
0
0
0
0
0
0
0
0
0
0
0
0
0
0
0
0
0
1.47614
1.54411
2.09799
2.47435
3.77929
5.12603
6.33856
5.10183
2.09579
1.47098
2.53607
14.3387
26.3021
0
0
0
0
0
0
0
0
0
0
0
0
0
0
0
0
0
0
0
0
0
0
0
0
0
0
0
0
0
0
0
0
0
0
0
0
0
2.59543
2.54951
1.62039
1.22694
0.49828
0.777197
0.916648
3.70181
7.89906
8.9678
11.6117
27.2717
0
0
0
0
0
0
0
0
0
0
0
0
0
0
0
0
0
0
0
0
0
0
0
0
0
0
0
0
0
0
0
0
0
0
0
0
0
0
2.45787
2.59584
4.01582
4.53242
6.43299
7.47839
9.23983
7.89527
5.98596
8.49533
41.2731
0
0
0
0
0
0
0
0
0
0
0
0
0
0
0
0
0
0
0
0
0
0
0
0
0
0
0
0
0
0
0
0
0
0
0
0
0
0
0
9.36633
9.33066
8.04142
9.25902
7.69325
7.78758
9.09454
10.208
11.1703
21.7759
3.2041
0
0
0
0
0
0
0
0
0
0
0
0
0
0
0
0
0
0
0
0
0
0
0
0
0
0
0
0
0
0
0
0
0
0
0
0
0
0
0
7.92952
10.0992
10.1145
8.86149
11.2589
12.4355
10.8064
8.57914
8.60392
43.2779
0
0
0
0
0
0
0
0
0
0
0
0
0
0
0
0
0
0
0
0
0
0
0
0
0
0
0
0
0
0
0
0
0
0
0
0
0
0
0
0
13.2058
10.8439
11.0393
13.0106
10.7272
10.2862
9.48307
9.57063
8.67562
33.2233
0
0
0
0
0
0
0
0
0
0
0
0
0
0
0
0
0
0
0
0
0
0
0
0
0
0
0
0
0
0
0
0
0
0
0
0
0
0
0
0
8.71388
9.82855
9.83715
7.65861
8.9401
7.02241
6.34758
6.44313
5.90605
26.1906
0
0
0
0
0
0
0
0
0
0
0
0
0
0
0
0
0
0
0
0
0
0
0
0
0
0
0
0
0
0
0
0
0
0
0
0
0
0
0
0
7.061
5.55892
5.71513
6.83869
5.56628
5.6724
5.42452
5.43401
4.26976
17.1298
0
0
0
0
0
0
0
0
0
0
0
0
0
0
0
0
0
0
0
0
0
0
0
0
0
0
0
0
0
0
0
0
0
0
0
0
0
0
0
0
6.55202
6.55536
6.55982
5.31204
5.40986
6.30896
5.08555
5.09432
5.2091
10.3371
0
0
0
0
0
0
0
0
0
0
0
0
0
0
0
0
0
0
0
0
0
0
0
0
0
0
0
0
0
0
0
0
0
0
0
0
0
0
0
0
5.52783
5.53996
5.54196
5.54121
5.54439
4.52522
5.16545
5.22779
16.4546
0
0
0
0
0
0
0
0
0
0
0
0
0
0
0
0
0
0
0
0
0
0
0
0
0
0
0
0
0
0
0
0
0
0
0
0
0
0
0
0
0
3.60674
3.66202
3.98033
3.98143
3.98244
3.98396
3.23505
3.31189
11.5415
0
0
0
0
0
0
0
0
0
0
0
0
0
0
0
0
0
0
0
0
0
0
0
0
0
0
0
0
0
0
0
0
0
0
0
0
0
0
0
0
0
6.01719
6.36025
5.75447
5.75462
5.75506
5.75536
5.75588
5.76119
8.30564
0
0
0
0
0
0
0
0
0
0
0
0
0
0
0
0
0
0
0
0
0
0
0
0
0
0
0
0
0
0
0
0
0
0
0
0
0
0
0
0
0
3.29611
2.74112
2.74112
2.74112
2.74112
2.74112
2.74112
2.74112
2.74112
0
0
0
0
0
0
0
0
0
0
0
0
0
0
0
0
0
0
0
0
0
0
0
0
0
0
0
0
0
0
0
0
0
0
0
0
0
0
0
0
0
0
0
0
0
0
0
0
0
0
0
0
0
0
0
0
0
0
0
0
0
0
0
0
0
0
0
0
0
0
0
0
0
0
0
0
0
0
0
0
0
0
0
0
0
0
0
0
0
0
0
