# vtk DataFile Version 4.0
Nusif Fluid VTK output
ASCII
DATASET STRUCTURED_POINTS
DIMENSIONS 50 20 1
ORIGIN 0 0 0 
SPACING 0.2 0.2 1
POINT_DATA 1000 

VECTORS velocity double
0.0424207 -0.0388916  0
0.126833 -0.0392101  0
0.21118 -0.0396516  0
0.296315 -0.0401486  0
0.382279 -0.0406237  0
0.469119 -0.041151  0
0.557131 -0.0419082  0
0.647021 -0.0431323  0
0.739751 -0.0448356  0
0.835902 -0.0466314  0
0.934918 -0.0477701  0
1.03521 -0.04797  0
1.1369 -0.0492121  0
1.24233 -0.0517395  0
1.35255 -0.0540457  0
1.46418 -0.0531765  0
1.56835 -0.0465938  0
1.65906 -0.0397365  0
1.738 -0.03484  0
1.8089 -0.0316966  0
1.87448 -0.0295281  0
1.93638 -0.0280198  0
1.99555 -0.026793  0
2.05251 -0.0258203  0
2.10792 -0.0252449  0
2.16321 -0.0257024  0
2.22059 -0.0273338  0
2.27992 -0.02765  0
2.33237 -0.02046  0
2.36978 -0.0126182  0
2.39458 -0.0078392  0
2.4143 -0.00753046  0
2.43757 -0.0114012  0
2.46934 -0.0160309  0
2.50023 -0.0105201  0
2.50486 0.0102319  0
2.48317 0.0158006  0
2.47764 -0.00809863  0
1.24287 -0.00466902  0
0 0  0
0 0  0
0 0  0
0 0  0
0 0  0
0 0  0
0 0  0
0 0  0
0 0  0
0 0  0
0 0  0
0.042298 -0.117354  0
0.1266 -0.118245  0
0.211003 -0.11952  0
0.296198 -0.120943  0
0.382091 -0.122185  0
0.468561 -0.123514  0
0.555616 -0.125349  0
0.643878 -0.128685  0
0.734766 -0.133833  0
0.82941 -0.139438  0
0.926806 -0.142456  0
1.02281 -0.140718  0
1.11703 -0.143551  0
1.21463 -0.151639  0
1.31917 -0.160152  0
1.42823 -0.159031  0
1.52866 -0.136623  0
1.61297 -0.116015  0
1.68654 -0.102377  0
1.75441 -0.0942304  0
1.81886 -0.0883398  0
1.88081 -0.0843667  0
1.9404 -0.0805062  0
1.99789 -0.0778832  0
2.05385 -0.0758658  0
2.10959 -0.0774296  0
2.16848 -0.0831889  0
2.23223 -0.0861907  0
2.28746 -0.0609174  0
2.32459 -0.0380328  0
2.35019 -0.0241382  0
2.37049 -0.022561  0
2.39262 -0.0330886  0
2.42284 -0.0476545  0
2.46036 -0.038626  0
2.48224 0.0183393  0
2.48162 0.0343425  0
2.47888 -0.0161973  0
1.23944 -0.0127676  0
0 0  0
0 0  0
0 0  0
0 0  0
0 0  0
0 0  0
0 0  0
0 0  0
0 0  0
0 0  0
0 0  0
0.0421071 -0.196441  0
0.126184 -0.197894  0
0.210606 -0.200054  0
0.296028 -0.202412  0
0.381996 -0.203979  0
0.467782 -0.205379  0
0.552544 -0.206714  0
0.636907 -0.211349  0
0.723677 -0.220225  0
0.815577 -0.230988  0
0.911387 -0.235508  0
1.00014 -0.223816  0
1.08004 -0.225947  0
1.16321 -0.241387  0
1.25746 -0.260563  0
1.36241 -0.263994  0
1.4564 -0.21744  0
1.53077 -0.185219  0
1.59914 -0.166459  0
1.66581 -0.156018  0
1.73143 -0.147953  0
1.79544 -0.142035  0
1.85722 -0.13554  0
1.91658 -0.131027  0
1.9737 -0.127118  0
2.02978 -0.129321  0
2.08876 -0.140475  0
2.15557 -0.150789  0
2.21395 -0.103417  0
2.25534 -0.0697248  0
2.2903 -0.0486639  0
2.31881 -0.0425056  0
2.34242 -0.0545313  0
2.36026 -0.0699342  0
2.36695 -0.0562117  0
2.41522 -0.0199984  0
2.49783 0.018542  0
2.50552 -0.00809863  0
1.23944 -0.00809863  0
0 0  0
0 0  0
0 0  0
0 0  0
0 0  0
0 0  0
0 0  0
0 0  0
0 0  0
0 0  0
0 0  0
0.0417009 -0.275216  0
0.125177 -0.277367  0
0.209509 -0.280808  0
0.295548 -0.284589  0
0.381737 -0.285426  0
0.466106 -0.285567  0
0.546391 -0.283031  0
0.62344 -0.287891  0
0.702965 -0.301408  0
0.790597 -0.320754  0
0.886282 -0.328647  0
0.967768 -0.29233  0
1.03152 -0.292479  0
1.09858 -0.316466  0
1.178 -0.350521  0
1.27218 -0.364531  0
1.36086 -0.293091  0
1.43986 -0.258606  0
1.51512 -0.232381  0
1.5901 -0.22741  0
1.65934 -0.207083  0
1.72865 -0.211886  0
1.79299 -0.187481  0
1.85427 -0.195376  0
1.91505 -0.176329  0
1.96835 -0.185152  0
2.02113 -0.192054  0
2.04394 -0.184497  0
2.12154 -0.155208  0
2.22475 -0.0443102  0
2.27347 -0.0323649  0
2.31929 -0.027475  0
2.35325 -0.0328439  0
2.35552 -0.0383106  0
2.35674 -0.0281059  0
1.18347 -0.0281059  0
0 0  0
0 0  0
0 0  0
0 0  0
0 0  0
0 0  0
0 0  0
0 0  0
0 0  0
0 0  0
0 0  0
0 0  0
0 0  0
0 0  0
0.0407497 -0.352919  0
0.122522 -0.355922  0
0.206139 -0.361736  0
0.29395 -0.369051  0
0.379289 -0.364035  0
0.457574 -0.361151  0
0.530958 -0.352606  0
0.600083 -0.355956  0
0.669982 -0.374213  0
0.748149 -0.405176  0
0.837624 -0.420803  0
0.92058 -0.358178  0
0.986969 -0.352475  0
1.05134 -0.383594  0
1.10658 -0.413734  0
1.12819 -0.412784  0
1.24765 -0.372073  0
1.40764 -0.149666  0
1.49938 -0.133458  0
1.57458 -0.133926  0
1.65162 -0.117942  0
1.71637 -0.126198  0
1.78321 -0.105655  0
1.84844 -0.116411  0
1.9062 -0.0998314  0
1.97595 -0.107558  0
2.00582 -0.107434  0
2.02875 -0.0922487  0
1.02197 -0.0922487  0
0 0  0
0 0  0
0 0  0
0 0  0
0 0  0
0 0  0
0 0  0
0 0  0
0 0  0
0 0  0
0 0  0
0 0  0
0 0  0
0 0  0
0 0  0
0 0  0
0 0  0
0 0  0
0 0  0
0 0  0
0 0  0
0.0389816 -0.428154  0
0.117294 -0.432057  0
0.197785 -0.441277  0
0.286602 -0.457718  0
0.359562 -0.427357  0
0.431034 -0.44337  0
0.506252 -0.414746  0
0.573052 -0.425476  0
0.64139 -0.438652  0
0.694638 -0.467869  0
0.717299 -0.465959  0
0.831455 -0.429896  0
0.998669 -0.191605  0
1.07741 -0.208616  0
1.10436 -0.217669  0
1.11691 -0.206392  0
0.564094 -0.206392  0
0 0  0
0 0  0
0 0  0
0 0  0
0 0  0
0 0  0
0 0  0
0 0  0
0 0  0
0 0  0
0 0  0
0 0  0
0 0  0
0 0  0
0 0  0
0 0  0
0 0  0
0 0  0
0 0  0
0 0  0
0 0  0
0 0  0
0 0  0
0 0  0
0 0  0
0 0  0
0 0  0
0 0  0
0 0  0
0 0  0
0 0  0
0 0  0
0 0  0
0.037876 -0.502824  0
0.110574 -0.504107  0
0.168881 -0.503814  0
0.192367 -0.503276  0
0.307055 -0.477968  0
0.426601 -0.24477  0
0.493096 -0.221898  0
0.585774 -0.231613  0
0.655042 -0.234619  0
0.692998 -0.245265  0
0.705013 -0.232979  0
0.358649 -0.232979  0
0 0  0
0 0  0
0 0  0
0 0  0
0 0  0
0 0  0
0 0  0
0 0  0
0 0  0
0 0  0
0 0  0
0 0  0
0 0  0
0 0  0
0 0  0
0 0  0
0 0  0
0 0  0
0 0  0
0 0  0
0 0  0
0 0  0
0 0  0
0 0  0
0 0  0
0 0  0
0 0  0
0 0  0
0 0  0
0 0  0
0 0  0
0 0  0
0 0  0
0 0  0
0 0  0
0 0  0
0 0  0
0 0  0
0.0369906 -0.27035  0
0.103874 -0.269465  0
0.151055 -0.26365  0
0.180355 -0.251638  0
0.0961835 -0.251638  0
0 0  0
0 0  0
0 0  0
0 0  0
0 0  0
0 0  0
0 0  0
0 0  0
0 0  0
0 0  0
0 0  0
0 0  0
0 0  0
0 0  0
0 0  0
0 0  0
0 0  0
0 0  0
0 0  0
0 0  0
0 0  0
0 0  0
0 0  0
0 0  0
0 0  0
0 0  0
0 0  0
0 0  0
0 0  0
0 0  0
0 0  0
0 0  0
0 0  0
0 0  0
0 0  0
0 0  0
0 0  0
0 0  0
0 0  0
0 0  0
0 0  0
0 0  0
0 0  0
0 0  0
0 0  0
0 0  0
0 0  0
0 0  0
0 0  0
0 0  0
0 0  0
0 0  0
0 0  0
0 0  0
0 0  0
0 0  0
0 0  0
0 0  0
0 0  0
0 0  0
0 0  0
0 0  0
0 0  0
0 0  0
0 0  0
0 0  0
0 0  0
0 0  0
0 0  0
0 0  0
0 0  0
0 0  0
0 0  0
0 0  0
0 0  0
0 0  0
0 0  0
0 0  0
0 0  0
0 0  0
0 0  0
0 0  0
0 0  0
0 0  0
0 0  0
0 0  0
0 0  0
0 0  0
0 0  0
0 0  0
0 0  0
0 0  0
0 0  0
0 0  0
0 0  0
0 0  0
0 0  0
0 0  0
0 0  0
0 0  0
0 0  0
0 0  0
0 0  0
0 0  0
0 0  0
0 0  0
0 0  0
0 0  0
0 0  0
0 0  0
0 0  0
0 0  0
0 0  0
0 0  0
0 0  0
0 0  0
0 0  0
0 0  0
0 0  0
0 0  0
0 0  0
0 0  0
0 0  0
0 0  0
0 0  0
0 0  0
0 0  0
0 0  0
0 0  0
0 0  0
0 0  0
0 0  0
0 0  0
0 0  0
0 0  0
0 0  0
0 0  0
0 0  0
0 0  0
0 0  0
0 0  0
0 0  0
0 0  0
0 0  0
0 0  0
0 0  0
0 0  0
0 0  0
0 0  0
0 0  0
0 0  0
0 0  0
0 0  0
0 0  0
0 0  0
0 0  0
0 0  0
0 0  0
0 0  0
0 0  0
0 0  0
0 0  0
0 0  0
0 0  0
0 0  0
0 0  0
0 0  0
0 0  0
0 0  0
0 0  0
0 0  0
0 0  0
0 0  0
0 0  0
0 0  0
0 0  0
0 0  0
0 0  0
0 0  0
0 0  0
0 0  0
0 0  0
0 0  0
0 0  0
0 0  0
0 0  0
0 0  0
0 0  0
0 0  0
0 0  0
0 0  0
0 0  0
0 0  0
0 0  0
0 0  0
0 0  0
0 0  0
0 0  0
0 0  0
0 0  0
0 0  0
0 0  0
0 0  0
0 0  0
0 0  0
0 0  0
0 0  0
0 0  0
0 0  0
0 0  0
0 0  0
0 0  0
0 0  0
0 0  0
0 0  0
0 0  0
0 0  0
0 0  0
0 0  0
0 0  0
0 0  0
0 0  0
0 0  0
0 0  0
0 0  0
0 0  0
0 0  0
0 0  0
0 0  0
0 0  0
0 0  0
0 0  0
0 0  0
0 0  0
0 0  0
0 0  0
0 0  0
0 0  0
0 0  0
0 0  0
0 0  0
0 0  0
0 0  0
0 0  0
0 0  0
0 0  0
0 0  0
0 0  0
0 0  0
0 0  0
0 0  0
0 0  0
0 0  0
0 0  0
0 0  0
0 0  0
0 0  0
0 0  0
0 0  0
0 0  0
0 0  0
0 0  0
0 0  0
0 0  0
0 0  0
0 0  0
0 0  0
0 0  0
0 0  0
0 0  0
0 0  0
0 0  0
0 0  0
0 0  0
0 0  0
0 0  0
0 0  0
0 0  0
0 0  0
0 0  0
0 0  0
0 0  0
0 0  0
0 0  0
0 0  0
0 0  0
0 0  0
0 0  0
0 0  0
0 0  0
0 0  0
0 0  0
0 0  0
0 0  0
0 0  0
0 0  0
0 0  0
0 0  0
0 0  0
0 0  0
0 0  0
0 0  0
0 0  0
0 0  0
0 0  0
0 0  0
0 0  0
0 0  0
0 0  0
0 0  0
0 0  0
0 0  0
0 0  0
0 0  0
0 0  0
0 0  0
0 0  0
0 0  0
0 0  0
0 0  0
0 0  0
0 0  0
0 0  0
0 0  0
0 0  0
0 0  0
0 0  0
0 0  0
0 0  0
0 0  0
0 0  0
0 0  0
0 0  0
0 0  0
0 0  0
0 0  0
0 0  0
0 0  0
0 0  0
0 0  0
0 0  0
0 0  0
0 0  0
0 0  0
0 0  0
0 0  0
0 0  0
0 0  0
0 0  0
0 0  0
0 0  0
0 0  0
0 0  0
0 0  0
0 0  0
0 0  0
0 0  0
0 0  0
0 0  0
0 0  0
0 0  0
0 0  0
0 0  0
0 0  0
0 0  0
0 0  0
0 0  0
0 0  0
0 0  0
0 0  0
0 0  0
0 0  0
0 0  0
0 0  0
0 0  0
0 0  0
0 0  0
0 0  0
0 0  0
0 0  0
0 0  0
0 0  0
0 0  0
0 0  0
0 0  0
0 0  0
0 0  0
0 0  0
0 0  0
0 0  0
0 0  0
0 0  0
0 0  0
0 0  0
0 0  0
0 0  0
0 0  0
0 0  0
0 0  0
0 0  0
0 0  0
0 0  0
0 0  0
0 0  0
0 0  0
0 0  0
0 0  0
0 0  0
0 0  0
0 0  0
0 0  0
0 0  0
0 0  0
0 0  0
0 0  0
0 0  0
0 0  0
0 0  0
0 0  0
0 0  0
0 0  0
0 0  0
0 0  0
0 0  0
0 0  0
0 0  0
0 0  0
0 0  0
0 0  0
0 0  0
0 0  0
0 0  0
0 0  0
0 0  0
0 0  0
0 0  0
0 0  0
0 0  0
0 0  0
0 0  0
0 0  0
0 0  0
0 0  0
0 0  0
0 0  0
0 0  0
0 0  0
0 0  0
0 0  0
0 0  0
0 0  0
0 0  0
0 0  0
0 0  0
0 0  0
0 0  0
0 0  0
0 0  0
0 0  0
0 0  0
0 0  0
0 0  0
0 0  0
0 0  0
0 0  0
0 0  0
0 0  0
0 0  0
0 0  0
0 0  0
0 0  0
0 0  0
0 0  0
0 0  0
0 0  0
0 0  0
0 0  0
0 0  0
0 0  0
0 0  0
0 0  0
0 0  0
0 0  0
0 0  0
0 0  0
0 0  0
0 0  0
0 0  0
0 0  0
0 0  0
0 0  0
0 0  0
0 0  0
0 0  0
0 0  0
0 0  0
0 0  0
0 0  0
0 0  0
0 0  0
0 0  0
0 0  0
0 0  0
0 0  0
0 0  0
0 0  0
0 0  0
0 0  0
0 0  0
0 0  0
0 0  0
0 0  0
0 0  0
0 0  0
0 0  0
0 0  0
0 0  0
0 0  0
0 0  0
0 0  0
0 0  0
0 0  0
0 0  0
0 0  0
0 0  0
0 0  0
0 0  0
0 0  0
0 0  0
0 0  0
0 0  0
0 0  0
0 0  0
0 0  0
0 0  0
0 0  0
0 0  0
0 0  0
0 0  0
0 0  0
0 0  0
0 0  0
0 0  0
0 0  0
0 0  0
0 0  0
0 0  0
0 0  0
0 0  0
0 0  0
0 0  0
0 0  0
0 0  0
0 0  0
0 0  0
0 0  0
0 0  0
0 0  0
0 0  0
0 0  0
0 0  0
0 0  0
0 0  0
0 0  0
0 0  0
0 0  0
0 0  0
0 0  0
0 0  0
0 0  0
0 0  0
0 0  0
0 0  0
0 0  0
0 0  0
0 0  0
0 0  0
0 0  0
0 0  0
0 0  0
0 0  0
0 0  0
0 0  0
0 0  0
0 0  0
0 0  0
0 0  0
0 0  0
0 0  0
0 0  0
0 0  0
0 0  0
0 0  0
0 0  0
0 0  0
0 0  0
0 0  0
0 0  0
0 0  0
0 0  0
0 0  0
0 0  0
0 0  0
0 0  0
0 0  0
0 0  0
0 0  0
0 0  0
0 0  0
0 0  0
0 0  0
0 0  0
0 0  0
0 0  0
0 0  0
0 0  0
0 0  0
0 0  0
0 0  0
0 0  0
0 0  0
0 0  0
0 0  0
0 0  0
0 0  0
0 0  0
0 0  0
0 0  0
0 0  0
0 0  0
0 0  0
0 0  0
0 0  0
0 0  0
0 0  0
0 0  0
0 0  0
0 0  0
0 0  0
0 0  0
0 0  0
0 0  0
0 0  0
0 0  0
0 0  0

SCALARS pressure double 1
LOOKUP_TABLE default
1.24499
1.24004
1.22972
1.21406
1.19456
1.17269
1.14916
1.12382
1.09556
1.0629
1.02504
0.98339
0.940913
0.896961
0.847854
0.791416
0.732367
0.683161
0.646767
0.621291
0.60322
0.589986
0.578592
0.567457
0.553916
0.535561
0.508839
0.471742
0.430261
0.402873
0.386145
0.372995
0.356187
0.326566
0.276865
0.207573
0.135541
0
0
0
0
0
0
0
0
0
0
0
0
0
1.03688
1.03147
1.01987
1.00231
0.980826
0.957814
0.933851
0.908684
0.880543
0.847117
0.806715
0.761688
0.718595
0.675909
0.627126
0.567347
0.502286
0.455562
0.424334
0.404284
0.389898
0.380509
0.371264
0.363582
0.352484
0.337317
0.311823
0.269281
0.213262
0.19138
0.18191
0.175467
0.166983
0.144997
0.0965126
0.00600858
0
0.00814728
0
0
0
0
0
0
0
0
0
0
0
0
0.823377
0.816808
0.802564
0.78083
0.754402
0.729276
0.704976
0.681046
0.654243
0.619997
0.574231
0.520445
0.477752
0.44018
0.393976
0.326694
0.240557
0.203428
0.182917
0.174328
0.164672
0.164492
0.156537
0.157665
0.14943
0.142771
0.124197
0.0743072
-0.0401745
-0.0340524
-0.0279202
-0.0240392
-0.0138413
-0.0134102
-0.0323201
0
0
0
0
0
0
0
0
0
0
0
0
0
0
0
0.604886
0.597023
0.579054
0.549498
0.511799
0.48523
0.461693
0.44204
0.419811
0.386727
0.331682
0.254898
0.218192
0.195836
0.16062
0.0868168
-0.0795429
-0.0738643
-0.080708
-0.064672
-0.0809961
-0.0530555
-0.0771338
-0.0473727
-0.0643071
-0.0495982
-0.0436227
-0.0557528
0
0
0
0
0
0
0
0
0
0
0
0
0
0
0
0
0
0
0
0
0
0
0.382957
0.374482
0.353539
0.311695
0.242642
0.224034
0.202321
0.193878
0.182424
0.158416
0.0939622
-0.0629838
-0.0697185
-0.052957
-0.05592
-0.0693233
0
0
0
0
0
0
0
0
0
0
0
0
0
0
0
0
0
0
0
0
0
0
0
0
0
0
0
0
0
0
0
0
0
0
0.158523
0.151995
0.135938
0.0866484
-0.0980526
-0.049813
-0.0851619
-0.065023
-0.0581727
-0.0487847
-0.062611
0
0
0
0
0
0
0
0
0
0
0
0
0
0
0
0
0
0
0
0
0
0
0
0
0
0
0
0
0
0
0
0
0
0
0
0
0
0
0
-0.0742828
-0.0773918
-0.064874
-0.0217067
0
0
0
0
0
0
0
0
0
0
0
0
0
0
0
0
0
0
0
0
0
0
0
0
0
0
0
0
0
0
0
0
0
0
0
0
0
0
0
0
0
0
0
0
0
0
0
0
0
0
0
0
0
0
0
0
0
0
0
0
0
0
0
0
0
0
0
0
0
0
0
0
0
0
0
0
0
0
0
0
0
0
0
0
0
0
0
0
0
0
0
0
0
0
0
0
0
0
0
0
0
0
0
0
0
0
0
0
0
0
0
0
0
0
0
0
0
0
0
0
0
0
0
0
0
0
0
0
0
0
0
0
0
0
0
0
0
0
0
0
0
0
0
0
0
0
0
0
0
0
0
0
0
0
0
0
0
0
0
0
0
0
0
0
0
0
0
0
0
0
0
0
0
0
0
0
0
0
0
0
0
0
0
0
0
0
0
0
0
0
0
0
0
0
0
0
0
0
0
0
0
0
0
0
0
0
0
0
0
0
0
0
0
0
0
0
0
0
0
0
0
0
0
0
0
0
0
0
0
0
0
0
0
0
0
0
0
0
0
0
0
0
0
0
0
0
0
0
0
0
0
0
0
0
0
0
0
0
0
0
0
0
0
0
0
0
0
0
0
0
0
0
0
0
0
0
0
0
0
0
0
0
0
0
0
0
0
0
0
0
0
0
0
0
0
0
0
0
0
0
0
0
0
0
0
0
0
0
0
0
0
0
0
0
0
0
0
0
0
0
0
0
0
0
0
0
0
0
0
0
0
0
0
0
0
0
0
0
0
0
0
0
0
0
0
0
0
0
0
0
0
0
0
0
0
0
0
0
0
0
0
0
0
0
0
0
0
0
0
0
0
0
0
0
0
0
0
0
0
0
0
0
0
0
0
0
0
0
0
0
0
0
0
0
0
0
0
0
0
0
0
0
0
0
0
0
0
0
0
0
0
0
0
0
0
0
0
0
0
0
0
0
0
0
0
0
0
0
0
0
0
0
0
0
0
0
0
0
0
0
0
0
0
0
0
0
0
0
0
0
0
0
0
0
0
0
0
0
0
0
0
0
0
0
0
0
0
0
0
0
0
0
0
0
0
0
0
0
0
0
0
0
0
0
0
0
0
0
0
0
0
0
0
0
0
0
0
0
0
0
0
0
0
0
0
0
0
0
0
0
0
0
0
0
0
0
0
0
0
0
0
0
0
0
0
0
0
0
0
0
0
0
0
0
0
0
0
0
0
0
0
0
0
0
0
0
0
0
0
0
0
0
0
0
0
0
0
0
0
0
0
0
0
0
0
0
0
0
0
0
0
0
0
0
0
0
0
0
0
0
0
0
0
0
0
0
0
0
0
0
0
0
0
0
0
0
0
0
0
0
0
0
0
0
0
0
0
0
0
0
0
0
0
0
0
0
0
0
0
0
0
0
0
0
0
0
0
0
0
0
0
0
0
0
0
0
0
0
0
0
0
0
0
0
0
0
0
0
0
0
0
0
0
0
0
0
0
0
0
0
0
0
0
0
0
0
0
0
0
0
0
0
0
0
0
0
0
0
0
0
0
0
0
0
0
0
0
0
0
0
0
0
0
0
0
0
SCALARS rhs double 1
LOOKUP_TABLE default
-4.98657
-5.19612
-5.24635
-5.27469
-5.30487
-5.33036
-5.35822
-5.39344
-5.43817
-5.48612
-5.52274
-5.53986
-5.57669
-5.64034
-5.6918
-5.65892
-5.5008
-5.36549
-5.28488
-5.23832
-5.21001
-5.18943
-5.17407
-5.1585
-5.15497
-5.16501
-5.18486
-5.17021
-5.07355
-5.02074
-5.01609
-5.02973
-5.05052
-5.04118
-4.99859
-5.10762
-4.97624
-1.08213
0
0
0
0
0
0
0
0
0
0
0
0
-0.130995
-0.304699
-0.332427
-0.346417
-0.358213
-0.367627
-0.374398
-0.38984
-0.420029
-0.46063
-0.475903
-0.441655
-0.458143
-0.521633
-0.587911
-0.549821
-0.333722
-0.228371
-0.195831
-0.182761
-0.173501
-0.159091
-0.148234
-0.136743
-0.141176
-0.166631
-0.191714
-0.150171
-0.0564973
-0.0384585
-0.0645563
-0.100329
-0.128031
-0.0833997
0.237481
-1.06941
-1.44652
-0.542612
0
0
0
0
0
0
0
0
0
0
0
0
-0.183522
-0.326395
-0.351276
-0.369493
-0.379351
-0.375577
-0.358544
-0.362157
-0.394591
-0.447857
-0.456819
-0.335828
-0.34337
-0.435396
-0.5345
-0.454436
-0.236878
-0.214547
-0.258686
-0.253286
-0.27475
-0.232757
-0.248777
-0.208831
-0.231429
-0.241435
-0.28833
0.00787802
4.83432
5.01982
3.97632
2.57553
0.647163
-1.4318
-1.08213
0
0
0
0
0
0
0
0
0
0
0
0
0
0
0
-0.2151
-0.332378
-0.352288
-0.375794
-0.398765
-0.364231
-0.312808
-0.303805
-0.351185
-0.43241
-0.427462
-0.314431
-0.353273
-0.436687
-0.546921
-0.222774
2.01732
4.87861
25.6862
19.3024
15.0469
10.265
7.20666
4.41875
4.83432
5.01982
2.57553
-1.06941
0
0
0
0
0
0
0
0
0
0
0
0
0
0
0
0
0
0
0
0
0
0
-0.24017
-0.324112
-0.341315
-0.377201
-0.544207
-0.408148
-0.380968
-0.352573
-0.401058
-0.490649
-0.289565
-0.515543
2.32995
2.62052
41.8321
33.1562
19.5017
9.00999
0
0
0
0
0
0
0
0
0
0
0
0
0
0
0
0
0
0
0
0
0
0
0
0
0
0
0
0
0
0
0
0
-0.36808
-0.427657
-0.42639
-0.485847
-1.16586
-1.70126
-1.88055
-0.45496
1.77483
3.18596
4.68643
4.81997
12.4974
35.3186
0
0
0
0
0
0
0
0
0
0
0
0
0
0
0
0
0
0
0
0
0
0
0
0
0
0
0
0
0
0
0
0
0
0
0
0
1.77761
1.84558
2.39945
2.47435
3.77929
5.12603
6.33856
5.10183
2.09579
1.47098
2.53607
14.3387
26.3021
0
0
0
0
0
0
0
0
0
0
0
0
0
0
0
0
0
0
0
0
0
0
0
0
0
0
0
0
0
0
0
0
0
0
0
0
0
2.59543
2.54951
1.62039
1.22694
0.49828
0.777197
0.916648
3.70181
7.89906
8.9678
11.6117
27.2717
0
0
0
0
0
0
0
0
0
0
0
0
0
0
0
0
0
0
0
0
0
0
0
0
0
0
0
0
0
0
0
0
0
0
0
0
0
0
2.45787
2.59584
4.01582
4.53242
6.43299
7.47839
9.23983
7.89527
5.98596
8.49533
41.2731
0
0
0
0
0
0
0
0
0
0
0
0
0
0
0
0
0
0
0
0
0
0
0
0
0
0
0
0
0
0
0
0
0
0
0
0
0
0
0
9.36633
9.33066
8.04142
9.25902
7.69325
7.78758
9.09454
10.208
11.1703
21.7759
3.2041
0
0
0
0
0
0
0
0
0
0
0
0
0
0
0
0
0
0
0
0
0
0
0
0
0
0
0
0
0
0
0
0
0
0
0
0
0
0
0
7.92952
10.0992
10.1145
8.86149
11.2589
12.4355
10.8064
8.57914
8.60392
43.2779
0
0
0
0
0
0
0
0
0
0
0
0
0
0
0
0
0
0
0
0
0
0
0
0
0
0
0
0
0
0
0
0
0
0
0
0
0
0
0
0
13.2058
10.8439
11.0393
13.0106
10.7272
10.2862
9.48307
9.57063
8.67562
33.2233
0
0
0
0
0
0
0
0
0
0
0
0
0
0
0
0
0
0
0
0
0
0
0
0
0
0
0
0
0
0
0
0
0
0
0
0
0
0
0
0
8.71388
9.82855
9.83715
7.65861
8.9401
7.02241
6.34758
6.44313
5.90605
26.1906
0
0
0
0
0
0
0
0
0
0
0
0
0
0
0
0
0
0
0
0
0
0
0
0
0
0
0
0
0
0
0
0
0
0
0
0
0
0
0
0
7.061
5.55892
5.71513
6.83869
5.56628
5.6724
5.42452
5.43401
4.26976
17.1298
0
0
0
0
0
0
0
0
0
0
0
0
0
0
0
0
0
0
0
0
0
0
0
0
0
0
0
0
0
0
0
0
0
0
0
0
0
0
0
0
6.55202
6.55536
6.55982
5.31204
5.40986
6.30896
5.08555
5.09432
5.2091
10.3371
0
0
0
0
0
0
0
0
0
0
0
0
0
0
0
0
0
0
0
0
0
0
0
0
0
0
0
0
0
0
0
0
0
0
0
0
0
0
0
0
5.52783
5.53996
5.54196
5.54121
5.54439
4.52522
5.16545
5.22779
16.4546
0
0
0
0
0
0
0
0
0
0
0
0
0
0
0
0
0
0
0
0
0
0
0
0
0
0
0
0
0
0
0
0
0
0
0
0
0
0
0
0
0
3.60674
3.66202
3.98033
3.98143
3.98244
3.98396
3.23505
3.31189
11.5415
0
0
0
0
0
0
0
0
0
0
0
0
0
0
0
0
0
0
0
0
0
0
0
0
0
0
0
0
0
0
0
0
0
0
0
0
0
0
0
0
0
6.01719
6.36025
5.75447
5.75462
5.75506
5.75536
5.75588
5.76119
8.30564
0
0
0
0
0
0
0
0
0
0
0
0
0
0
0
0
0
0
0
0
0
0
0
0
0
0
0
0
0
0
0
0
0
0
0
0
0
0
0
0
0
3.29611
2.74112
2.74112
2.74112
2.74112
2.74112
2.74112
2.74112
2.74112
0
0
0
0
0
0
0
0
0
0
0
0
0
0
0
0
0
0
0
0
0
0
0
0
0
0
0
0
0
0
0
0
0
0
0
0
0
0
0
0
0
0
0
0
0
0
0
0
0
0
0
0
0
0
0
0
0
0
0
0
0
0
0
0
0
0
0
0
0
0
0
0
0
0
0
0
0
0
0
0
0
0
0
0
0
0
0
0
0
0
0
