# vtk DataFile Version 4.0
Nusif Fluid VTK output
ASCII
DATASET STRUCTURED_POINTS
DIMENSIONS 50 20 1
ORIGIN 0 0 0 
SPACING 0.2 0.2 1
POINT_DATA 1000 

VECTORS velocity double
0.0552361 -0.0610603  0
0.165974 -0.0619039  0
0.278585 -0.0635634  0
0.395218 -0.0660306  0
0.517455 -0.069275  0
0.646786 -0.0732332  0
0.784482 -0.0777469  0
0.931341 -0.082502  0
1.08728 -0.0869237  0
1.25074 -0.0901245  0
1.418 -0.0908142  0
1.58254 -0.0874701  0
1.73516 -0.0789695  0
1.86552 -0.065269  0
1.96397 -0.0470934  0
2.02411 -0.0270027  0
2.04661 -0.00945907  0
2.03688 0.00520772  0
2.00157 0.0161179  0
1.97845 0  0
0.989227 0  0
0 0  0
0 0  0
0 0  0
0 0  0
0 0  0
0 0  0
0 0  0
0 0  0
0 0  0
0 0  0
0 0  0
0 0  0
0 0  0
0 0  0
0 0  0
0 0  0
0 0  0
0 0  0
0 0  0
0 0  0
0 0  0
0 0  0
0 0  0
0 0  0
0 0  0
0 0  0
0 0  0
0 0  0
0 0  0
0.0543602 -0.182886  0
0.163374 -0.185368  0
0.274261 -0.190278  0
0.389095 -0.197593  0
0.509449 -0.207243  0
0.63683 -0.219048  0
0.772534 -0.232531  0
0.91737 -0.246738  0
1.07125 -0.25995  0
1.23257 -0.269437  0
1.39732 -0.27117  0
1.55829 -0.260369  0
1.70539 -0.233615  0
1.82782 -0.191299  0
1.916 -0.135621  0
1.96686 -0.0774363  0
1.98312 -0.0257574  0
1.98336 0.00301638  0
1.98376 0.0322358  0
1.98111 0.0161179  0
0.989227 0  0
0 0  0
0 0  0
0 0  0
0 0  0
0 0  0
0 0  0
0 0  0
0 0  0
0 0  0
0 0  0
0 0  0
0 0  0
0 0  0
0 0  0
0 0  0
0 0  0
0 0  0
0 0  0
0 0  0
0 0  0
0 0  0
0 0  0
0 0  0
0 0  0
0 0  0
0 0  0
0 0  0
0 0  0
0 0  0
0.0526675 -0.302779  0
0.158318 -0.306832  0
0.265808 -0.314868  0
0.377132 -0.32688  0
0.493869 -0.342809  0
0.617556 -0.362356  0
0.749525 -0.384741  0
0.890639 -0.408363  0
1.04085 -0.43034  0
1.19838 -0.445851  0
1.35854 -0.447643  0
1.51268 -0.427009  0
1.64891 -0.378333  0
1.75558 -0.303706  0
1.81922 -0.203077  0
1.84903 -0.118681  0
1.85734 -0.0300948  0
1.85484 -0.00438268  0
1.9193 0.0139265  0
0.991879 0.0161179  0
0 0  0
0 0  0
0 0  0
0 0  0
0 0  0
0 0  0
0 0  0
0 0  0
0 0  0
0 0  0
0 0  0
0 0  0
0 0  0
0 0  0
0 0  0
0 0  0
0 0  0
0 0  0
0 0  0
0 0  0
0 0  0
0 0  0
0 0  0
0 0  0
0 0  0
0 0  0
0 0  0
0 0  0
0 0  0
0 0  0
0.0502002 -0.418627  0
0.15092 -0.424188  0
0.253417 -0.435226  0
0.359612 -0.451806  0
0.471084 -0.473895  0
0.589373 -0.501087  0
0.715868 -0.532353  0
0.851555 -0.565468  0
0.996453 -0.596291  0
1.14846 -0.617414  0
1.30156 -0.61735  0
1.44408 -0.581997  0
1.56186 -0.505408  0
1.64289 -0.39239  0
1.67171 -0.227901  0
1.67052 -0.136494  0
1.75107 -0.0820434  0
1.84323 -0.00219134  0
0.927419 -0.00219134  0
0 0  0
0 0  0
0 0  0
0 0  0
0 0  0
0 0  0
0 0  0
0 0  0
0 0  0
0 0  0
0 0  0
0 0  0
0 0  0
0 0  0
0 0  0
0 0  0
0 0  0
0 0  0
0 0  0
0 0  0
0 0  0
0 0  0
0 0  0
0 0  0
0 0  0
0 0  0
0 0  0
0 0  0
0 0  0
0 0  0
0 0  0
0.0469974 -0.528924  0
0.141308 -0.535901  0
0.237307 -0.549785  0
0.336804 -0.57075  0
0.44131 -0.598773  0
0.552367 -0.633433  0
0.671499 -0.673545  0
0.799911 -0.716318  0
0.937737 -0.756139  0
1.08236 -0.782203  0
1.22541 -0.776741  0
1.34842 -0.716203  0
1.43155 -0.600188  0
1.46127 -0.429427  0
1.52079 -0.328065  0
1.62541 -0.0682469  0
0.835258 -0.0682469  0
0 0  0
0 0  0
0 0  0
0 0  0
0 0  0
0 0  0
0 0  0
0 0  0
0 0  0
0 0  0
0 0  0
0 0  0
0 0  0
0 0  0
0 0  0
0 0  0
0 0  0
0 0  0
0 0  0
0 0  0
0 0  0
0 0  0
0 0  0
0 0  0
0 0  0
0 0  0
0 0  0
0 0  0
0 0  0
0 0  0
0 0  0
0 0  0
0 0  0
0.0431314 -0.632273  0
0.129686 -0.640543  0
0.217764 -0.657045  0
0.308978 -0.682056  0
0.404748 -0.715626  0
0.506669 -0.757469  0
0.616436 -0.806349  0
0.735519 -0.858979  0
0.864249 -0.908034  0
0.999583 -0.938297  0
1.13083 -0.923002  0
1.23737 -0.827574  0
1.28128 -0.636935  0
1.37128 -0.533181  0
0.730636 -0.214714  0
0 0  0
0 0  0
0 0  0
0 0  0
0 0  0
0 0  0
0 0  0
0 0  0
0 0  0
0 0  0
0 0  0
0 0  0
0 0  0
0 0  0
0 0  0
0 0  0
0 0  0
0 0  0
0 0  0
0 0  0
0 0  0
0 0  0
0 0  0
0 0  0
0 0  0
0 0  0
0 0  0
0 0  0
0 0  0
0 0  0
0 0  0
0 0  0
0 0  0
0 0  0
0 0  0
0.0387029 -0.727449  0
0.116321 -0.736812  0
0.19516 -0.755565  0
0.276604 -0.784089  0
0.361968 -0.822646  0
0.452831 -0.871175  0
0.550972 -0.928519  0
0.658146 -0.991059  0
0.774957 -1.04951  0
0.89735 -1.08259  0
1.00909 -1.04978  0
1.09943 -0.918754  0
1.21047 -0.675791  0
0.640641 -0.318468  0
0 0  0
0 0  0
0 0  0
0 0  0
0 0  0
0 0  0
0 0  0
0 0  0
0 0  0
0 0  0
0 0  0
0 0  0
0 0  0
0 0  0
0 0  0
0 0  0
0 0  0
0 0  0
0 0  0
0 0  0
0 0  0
0 0  0
0 0  0
0 0  0
0 0  0
0 0  0
0 0  0
0 0  0
0 0  0
0 0  0
0 0  0
0 0  0
0 0  0
0 0  0
0 0  0
0 0  0
0.0338399 -0.813456  0
0.101619 -0.823619  0
0.170215 -0.844108  0
0.240694 -0.875403  0
0.314138 -0.918094  0
0.391995 -0.97242  0
0.476006 -1.03742  0
0.568175 -1.10951  0
0.669449 -1.17718  0
0.774007 -1.20994  0
0.860501 -1.14874  0
0.895319 -0.958991  0
0.44766 -0.836819  0
0 0  0
0 0  0
0 0  0
0 0  0
0 0  0
0 0  0
0 0  0
0 0  0
0 0  0
0 0  0
0 0  0
0 0  0
0 0  0
0 0  0
0 0  0
0 0  0
0 0  0
0 0  0
0 0  0
0 0  0
0 0  0
0 0  0
0 0  0
0 0  0
0 0  0
0 0  0
0 0  0
0 0  0
0 0  0
0 0  0
0 0  0
0 0  0
0 0  0
0 0  0
0 0  0
0 0  0
0 0  0
0.0288171 -0.889695  0
0.0863723 -0.900272  0
0.144219 -0.921856  0
0.203027 -0.954912  0
0.263423 -1.00041  0
0.326633 -1.05917  0
0.3941 -1.13016  0
0.467752 -1.21062  0
0.54895 -1.28659  0
0.63193 -1.31613  0
0.698064 -1.21624  0
0.809518 -0.991913  0
0.44766 -0.479495  0
0 0  0
0 0  0
0 0  0
0 0  0
0 0  0
0 0  0
0 0  0
0 0  0
0 0  0
0 0  0
0 0  0
0 0  0
0 0  0
0 0  0
0 0  0
0 0  0
0 0  0
0 0  0
0 0  0
0 0  0
0 0  0
0 0  0
0 0  0
0 0  0
0 0  0
0 0  0
0 0  0
0 0  0
0 0  0
0 0  0
0 0  0
0 0  0
0 0  0
0 0  0
0 0  0
0 0  0
0 0  0
0.024136 -0.956345  0
0.0719092 -0.966644  0
0.119269 -0.988686  0
0.166722 -1.02235  0
0.213871 -1.06853  0
0.261679 -1.13008  0
0.311239 -1.20429  0
0.363514 -1.29045  0
0.419314 -1.37181  0
0.477335 -1.39997  0
0.506663 -1.24189  0
0.253332 -1.13336  0
0 0  0
0 0  0
0 0  0
0 0  0
0 0  0
0 0  0
0 0  0
0 0  0
0 0  0
0 0  0
0 0  0
0 0  0
0 0  0
0 0  0
0 0  0
0 0  0
0 0  0
0 0  0
0 0  0
0 0  0
0 0  0
0 0  0
0 0  0
0 0  0
0 0  0
0 0  0
0 0  0
0 0  0
0 0  0
0 0  0
0 0  0
0 0  0
0 0  0
0 0  0
0 0  0
0 0  0
0 0  0
0 0  0
0.0207411 -1.01503  0
0.0603778 -1.02319  0
0.0984498 -1.0456  0
0.136558 -1.07902  0
0.172331 -1.1228  0
0.206237 -1.18556  0
0.240097 -1.26028  0
0.272604 -1.34729  0
0.30024 -1.42645  0
0.323757 -1.44791  0
0.421007 -1.30885  0
0.253332 -0.620945  0
0 0  0
0 0  0
0 0  0
0 0  0
0 0  0
0 0  0
0 0  0
0 0  0
0 0  0
0 0  0
0 0  0
0 0  0
0 0  0
0 0  0
0 0  0
0 0  0
0 0  0
0 0  0
0 0  0
0 0  0
0 0  0
0 0  0
0 0  0
0 0  0
0 0  0
0 0  0
0 0  0
0 0  0
0 0  0
0 0  0
0 0  0
0 0  0
0 0  0
0 0  0
0 0  0
0 0  0
0 0  0
0 0  0
0.0191334 -1.06882  0
0.0541467 -1.072  0
0.0866088 -1.09539  0
0.118817 -1.12761  0
0.149138 -1.16837  0
0.176921 -1.22973  0
0.201961 -1.30305  0
0.220955 -1.38407  0
0.239831 -1.45722  0
0.251662 -1.4595  0
0.125831 -1.41766  0
0 0  0
0 0  0
0 0  0
0 0  0
0 0  0
0 0  0
0 0  0
0 0  0
0 0  0
0 0  0
0 0  0
0 0  0
0 0  0
0 0  0
0 0  0
0 0  0
0 0  0
0 0  0
0 0  0
0 0  0
0 0  0
0 0  0
0 0  0
0 0  0
0 0  0
0 0  0
0 0  0
0 0  0
0 0  0
0 0  0
0 0  0
0 0  0
0 0  0
0 0  0
0 0  0
0 0  0
0 0  0
0 0  0
0 0  0
0.0161131 -1.11105  0
0.0552297 -1.1179  0
0.0915944 -1.13235  0
0.124755 -1.17005  0
0.15927 -1.20479  0
0.188814 -1.26466  0
0.21592 -1.33429  0
0.228199 -1.39812  0
0.235153 -1.43359  0
0.246885 -0.72975  0
0.125831 -0.72975  0
0 0  0
0 0  0
0 0  0
0 0  0
0 0  0
0 0  0
0 0  0
0 0  0
0 0  0
0 0  0
0 0  0
0 0  0
0 0  0
0 0  0
0 0  0
0 0  0
0 0  0
0 0  0
0 0  0
0 0  0
0 0  0
0 0  0
0 0  0
0 0  0
0 0  0
0 0  0
0 0  0
0 0  0
0 0  0
0 0  0
0 0  0
0 0  0
0 0  0
0 0  0
0 0  0
0 0  0
0 0  0
0 0  0
0 0  0
0.0229869 -0.56358  0
0.0645063 -0.570454  0
0.116066 -0.572856  0
0.161652 -0.594925  0
0.20409 -0.609754  0
0.252342 -0.639746  0
0.275236 -0.673282  0
0.253978 -0.699061  0
0.1141 -0.699061  0
0 0  0
0 0  0
0 0  0
0 0  0
0 0  0
0 0  0
0 0  0
0 0  0
0 0  0
0 0  0
0 0  0
0 0  0
0 0  0
0 0  0
0 0  0
0 0  0
0 0  0
0 0  0
0 0  0
0 0  0
0 0  0
0 0  0
0 0  0
0 0  0
0 0  0
0 0  0
0 0  0
0 0  0
0 0  0
0 0  0
0 0  0
0 0  0
0 0  0
0 0  0
0 0  0
0 0  0
0 0  0
0 0  0
0 0  0
0 0  0
0 0  0
0 0  0
0 0  0
0 0  0
0 0  0
0 0  0
0 0  0
0 0  0
0 0  0
0 0  0
0 0  0
0 0  0
0 0  0
0 0  0
0 0  0
0 0  0
0 0  0
0 0  0
0 0  0
0 0  0
0 0  0
0 0  0
0 0  0
0 0  0
0 0  0
0 0  0
0 0  0
0 0  0
0 0  0
0 0  0
0 0  0
0 0  0
0 0  0
0 0  0
0 0  0
0 0  0
0 0  0
0 0  0
0 0  0
0 0  0
0 0  0
0 0  0
0 0  0
0 0  0
0 0  0
0 0  0
0 0  0
0 0  0
0 0  0
0 0  0
0 0  0
0 0  0
0 0  0
0 0  0
0 0  0
0 0  0
0 0  0
0 0  0
0 0  0
0 0  0
0 0  0
0 0  0
0 0  0
0 0  0
0 0  0
0 0  0
0 0  0
0 0  0
0 0  0
0 0  0
0 0  0
0 0  0
0 0  0
0 0  0
0 0  0
0 0  0
0 0  0
0 0  0
0 0  0
0 0  0
0 0  0
0 0  0
0 0  0
0 0  0
0 0  0
0 0  0
0 0  0
0 0  0
0 0  0
0 0  0
0 0  0
0 0  0
0 0  0
0 0  0
0 0  0
0 0  0
0 0  0
0 0  0
0 0  0
0 0  0
0 0  0
0 0  0
0 0  0
0 0  0
0 0  0
0 0  0
0 0  0
0 0  0
0 0  0
0 0  0
0 0  0
0 0  0
0 0  0
0 0  0
0 0  0
0 0  0
0 0  0
0 0  0
0 0  0
0 0  0
0 0  0
0 0  0
0 0  0
0 0  0
0 0  0
0 0  0
0 0  0
0 0  0
0 0  0
0 0  0
0 0  0
0 0  0
0 0  0
0 0  0
0 0  0
0 0  0
0 0  0
0 0  0
0 0  0
0 0  0
0 0  0
0 0  0
0 0  0
0 0  0
0 0  0
0 0  0
0 0  0
0 0  0
0 0  0
0 0  0
0 0  0
0 0  0
0 0  0
0 0  0
0 0  0
0 0  0
0 0  0
0 0  0
0 0  0
0 0  0
0 0  0
0 0  0
0 0  0
0 0  0
0 0  0
0 0  0
0 0  0
0 0  0
0 0  0
0 0  0
0 0  0
0 0  0
0 0  0
0 0  0
0 0  0
0 0  0
0 0  0
0 0  0
0 0  0
0 0  0
0 0  0
0 0  0
0 0  0
0 0  0
0 0  0
0 0  0
0 0  0
0 0  0
0 0  0
0 0  0
0 0  0
0 0  0
0 0  0
0 0  0
0 0  0
0 0  0
0 0  0
0 0  0
0 0  0
0 0  0
0 0  0
0 0  0
0 0  0
0 0  0
0 0  0
0 0  0
0 0  0
0 0  0
0 0  0
0 0  0
0 0  0
0 0  0
0 0  0
0 0  0
0 0  0
0 0  0
0 0  0
0 0  0
0 0  0
0 0  0
0 0  0
0 0  0
0 0  0
0 0  0
0 0  0
0 0  0
0 0  0
0 0  0
0 0  0
0 0  0
0 0  0
0 0  0
0 0  0
0 0  0
0 0  0
0 0  0
0 0  0
0 0  0
0 0  0
0 0  0
0 0  0
0 0  0
0 0  0
0 0  0
0 0  0
0 0  0
0 0  0
0 0  0
0 0  0
0 0  0
0 0  0
0 0  0
0 0  0
0 0  0
0 0  0
0 0  0
0 0  0
0 0  0
0 0  0
0 0  0
0 0  0
0 0  0
0 0  0
0 0  0
0 0  0
0 0  0
0 0  0
0 0  0
0 0  0
0 0  0
0 0  0
0 0  0
0 0  0
0 0  0
0 0  0
0 0  0
0 0  0
0 0  0
0 0  0
0 0  0
0 0  0
0 0  0
0 0  0
0 0  0
0 0  0
0 0  0
0 0  0
0 0  0
0 0  0
0 0  0
0 0  0
0 0  0
0 0  0
0 0  0
0 0  0
0 0  0
0 0  0
0 0  0
0 0  0
0 0  0
0 0  0

SCALARS pressure double 1
LOOKUP_TABLE default
2.48687
2.48181
2.46905
2.44653
2.4119
2.36198
2.29273
2.19947
2.07742
1.92271
1.7341
1.51531
1.27709
1.03693
0.815114
0.628588
0.483074
0.385966
0.35353
0.536402
0
0
0
0
0
0
0
0
0
0
0
0
0
0
0
0
0
0
0
0
0
0
0
0
0
0
0
0
0
0
2.27545
2.27034
2.25745
2.23472
2.19976
2.14927
2.07906
1.98425
1.85981
1.70165
1.50848
1.28445
1.04146
0.798579
0.577547
0.397144
0.247859
0.126428
-0.0657956
0
0
0
0
0
0
0
0
0
0
0
0
0
0
0
0
0
0
0
0
0
0
0
0
0
0
0
0
0
0
0
2.05789
2.05269
2.03971
2.01686
1.98168
1.93067
1.85934
1.7624
1.63423
1.47013
1.2685
1.03422
0.781527
0.532472
0.311445
0.155674
0
-0.0315552
0
0
0
0
0
0
0
0
0
0
0
0
0
0
0
0
0
0
0
0
0
0
0
0
0
0
0
0
0
0
0
0
1.83513
1.82988
1.81694
1.79423
1.75913
1.70795
1.63581
1.53681
1.40448
1.23312
1.02062
0.772887
0.507972
0.251744
0.0232215
-0.0485866
0
0
0
0
0
0
0
0
0
0
0
0
0
0
0
0
0
0
0
0
0
0
0
0
0
0
0
0
0
0
0
0
0
0
1.60911
1.60388
1.59118
1.56895
1.53446
1.48381
1.41173
1.31164
1.17604
0.998066
0.775006
0.514265
0.239197
-0.00344036
0
0
0
0
0
0
0
0
0
0
0
0
0
0
0
0
0
0
0
0
0
0
0
0
0
0
0
0
0
0
0
0
0
0
0
0
1.38208
1.37697
1.36478
1.34347
1.31031
1.26124
1.19071
1.0915
0.955214
0.774092
0.545657
0.279703
-0.00295608
0
0
0
0
0
0
0
0
0
0
0
0
0
0
0
0
0
0
0
0
0
0
0
0
0
0
0
0
0
0
0
0
0
0
0
0
0
1.15647
1.15161
1.14023
1.12039
1.0894
1.04324
0.976191
0.88071
0.747834
0.569766
0.347313
0.100543
0
0
0
0
0
0
0
0
0
0
0
0
0
0
0
0
0
0
0
0
0
0
0
0
0
0
0
0
0
0
0
0
0
0
0
0
0
0
0.934696
0.930258
0.920009
0.902187
0.874278
0.832441
0.771071
0.68262
0.55796
0.38977
0.183186
-0.0277658
0
0
0
0
0
0
0
0
0
0
0
0
0
0
0
0
0
0
0
0
0
0
0
0
0
0
0
0
0
0
0
0
0
0
0
0
0
0
0.718979
0.715139
0.70636
0.691099
0.667111
0.630998
0.577476
0.499515
0.3889
0.241502
0.0773291
0
0
0
0
0
0
0
0
0
0
0
0
0
0
0
0
0
0
0
0
0
0
0
0
0
0
0
0
0
0
0
0
0
0
0
0
0
0
0
0.51111
0.508113
0.501141
0.488978
0.469621
0.440546
0.396696
0.331692
0.238826
0.114991
-0.0300355
0
0
0
0
0
0
0
0
0
0
0
0
0
0
0
0
0
0
0
0
0
0
0
0
0
0
0
0
0
0
0
0
0
0
0
0
0
0
0
0.312196
0.310552
0.305649
0.297289
0.28301
0.262547
0.230264
0.179743
0.109381
0.0557951
0
0
0
0
0
0
0
0
0
0
0
0
0
0
0
0
0
0
0
0
0
0
0
0
0
0
0
0
0
0
0
0
0
0
0
0
0
0
0
0
0.122168
0.123599
0.120215
0.117337
0.107385
0.0987029
0.0814224
0.0435375
-0.00978433
-0.0748572
0
0
0
0
0
0
0
0
0
0
0
0
0
0
0
0
0
0
0
0
0
0
0
0
0
0
0
0
0
0
0
0
0
0
0
0
0
0
0
0
-0.0395694
-0.0280767
-0.0353053
-0.0247536
-0.0383026
-0.0242132
-0.0143578
-0.041276
0
0
0
0
0
0
0
0
0
0
0
0
0
0
0
0
0
0
0
0
0
0
0
0
0
0
0
0
0
0
0
0
0
0
0
0
0
0
0
0
0
0
0
0
0
0
0
0
0
0
0
0
0
0
0
0
0
0
0
0
0
0
0
0
0
0
0
0
0
0
0
0
0
0
0
0
0
0
0
0
0
0
0
0
0
0
0
0
0
0
0
0
0
0
0
0
0
0
0
0
0
0
0
0
0
0
0
0
0
0
0
0
0
0
0
0
0
0
0
0
0
0
0
0
0
0
0
0
0
0
0
0
0
0
0
0
0
0
0
0
0
0
0
0
0
0
0
0
0
0
0
0
0
0
0
0
0
0
0
0
0
0
0
0
0
0
0
0
0
0
0
0
0
0
0
0
0
0
0
0
0
0
0
0
0
0
0
0
0
0
0
0
0
0
0
0
0
0
0
0
0
0
0
0
0
0
0
0
0
0
0
0
0
0
0
0
0
0
0
0
0
0
0
0
0
0
0
0
0
0
0
0
0
0
0
0
0
0
0
0
0
0
0
0
0
0
0
0
0
0
0
0
0
0
0
0
0
0
0
0
0
0
0
0
0
0
0
0
0
0
0
0
0
0
0
0
0
0
0
0
0
0
0
0
0
0
0
0
0
0
0
0
0
0
0
0
0
0
0
0
0
0
0
0
0
0
0
0
0
0
0
0
0
0
0
0
0
0
0
0
0
0
0
0
0
0
0
0
0
0
0
0
0
0
0
0
0
0
0
0
0
0
0
0
0
0
0
0
0
0
0
0
0
0
0
0
0
0
0
0
0
0
0
0
0
0
0
0
0
0
0
0
0
0
0
0
0
0
0
0
0
0
0
0
0
0
0
0
0
0
0
0
SCALARS rhs double 1
LOOKUP_TABLE default
-5.11967
-5.33128
-5.39937
-5.47595
-5.578
-5.70675
-5.86066
-6.03199
-6.2007
-6.32969
-6.36112
-6.23245
-5.92225
-5.48927
-5.05047
-4.75747
-4.66891
-4.87128
-5.10071
1.74835
0
0
0
0
0
0
0
0
0
0
0
0
0
0
0
0
0
0
0
0
0
0
0
0
0
0
0
0
0
0
-0.134236
-0.327262
-0.381052
-0.441135
-0.523691
-0.630042
-0.758577
-0.901325
-1.03951
-1.13596
-1.13082
-0.959931
-0.607707
-0.15087
0.299187
0.524673
0.378043
0.767805
3.2041
0
0
0
0
0
0
0
0
0
0
0
0
0
0
0
0
0
0
0
0
0
0
0
0
0
0
0
0
0
0
0
-0.126621
-0.305365
-0.356273
-0.414914
-0.496712
-0.602376
-0.729927
-0.870307
-1.00141
-1.07557
-1.01625
-0.741102
-0.253998
0.330282
1.07357
0.929526
5.83259
1.74835
0
0
0
0
0
0
0
0
0
0
0
0
0
0
0
0
0
0
0
0
0
0
0
0
0
0
0
0
0
0
0
0
-0.0945353
-0.257262
-0.306343
-0.365054
-0.447265
-0.553544
-0.681765
-0.821216
-0.943017
-0.981581
-0.828014
-0.36701
0.330518
1.3243
7.1248
3.2041
0
0
0
0
0
0
0
0
0
0
0
0
0
0
0
0
0
0
0
0
0
0
0
0
0
0
0
0
0
0
0
0
0
0
-0.0525098
-0.197427
-0.244816
-0.303308
-0.385123
-0.492101
-0.622056
-0.761739
-0.870747
-0.853929
-0.540863
0.236286
1.46836
7.1248
0
0
0
0
0
0
0
0
0
0
0
0
0
0
0
0
0
0
0
0
0
0
0
0
0
0
0
0
0
0
0
0
0
0
0
0
-0.00390949
-0.129628
-0.174538
-0.23158
-0.31257
-0.420729
-0.553725
-0.694688
-0.788013
-0.696668
-0.16993
0.958286
7.1248
0
0
0
0
0
0
0
0
0
0
0
0
0
0
0
0
0
0
0
0
0
0
0
0
0
0
0
0
0
0
0
0
0
0
0
0
0
0.0476255
-0.0577887
-0.0990693
-0.153537
-0.23324
-0.341696
-0.477099
-0.62007
-0.69635
-0.507321
0.239281
10.8204
0
0
0
0
0
0
0
0
0
0
0
0
0
0
0
0
0
0
0
0
0
0
0
0
0
0
0
0
0
0
0
0
0
0
0
0
0
0
0.0982846
0.0134007
-0.0232525
-0.0735166
-0.149459
-0.255665
-0.391259
-0.534165
-0.572679
-0.172868
1.34063
3.2041
0
0
0
0
0
0
0
0
0
0
0
0
0
0
0
0
0
0
0
0
0
0
0
0
0
0
0
0
0
0
0
0
0
0
0
0
0
0
0.143454
0.0789475
0.0481495
0.00487992
-0.0630176
-0.163001
-0.293831
-0.438459
-0.450151
0.118013
14.4879
0
0
0
0
0
0
0
0
0
0
0
0
0
0
0
0
0
0
0
0
0
0
0
0
0
0
0
0
0
0
0
0
0
0
0
0
0
0
0
0.178108
0.134753
0.110814
0.078027
0.0258307
-0.0615407
-0.174113
-0.304238
-0.263519
1.1479
3.2041
0
0
0
0
0
0
0
0
0
0
0
0
0
0
0
0
0
0
0
0
0
0
0
0
0
0
0
0
0
0
0
0
0
0
0
0
0
0
0
0.196635
0.179059
0.160396
0.14098
0.115753
0.0540991
-0.0204597
-0.107011
0.671096
29.5577
0
0
0
0
0
0
0
0
0
0
0
0
0
0
0
0
0
0
0
0
0
0
0
0
0
0
0
0
0
0
0
0
0
0
0
0
0
0
0
0
0.74579
0.754859
0.754179
0.763918
0.774847
0.803478
0.807098
0.894665
2.43921
29.2853
0
0
0
0
0
0
0
0
0
0
0
0
0
0
0
0
0
0
0
0
0
0
0
0
0
0
0
0
0
0
0
0
0
0
0
0
0
0
0
0
2.47747
3.59214
3.60074
3.72059
5.00207
5.11856
6.34758
6.44313
5.90605
26.1906
0
0
0
0
0
0
0
0
0
0
0
0
0
0
0
0
0
0
0
0
0
0
0
0
0
0
0
0
0
0
0
0
0
0
0
0
0
0
0
0
7.061
5.55892
5.71513
6.83869
5.56628
5.6724
5.42452
5.43401
4.26976
17.1298
0
0
0
0
0
0
0
0
0
0
0
0
0
0
0
0
0
0
0
0
0
0
0
0
0
0
0
0
0
0
0
0
0
0
0
0
0
0
0
0
6.55202
6.55536
6.55982
5.31204
5.40986
6.30896
5.08555
5.09432
5.2091
10.3371
0
0
0
0
0
0
0
0
0
0
0
0
0
0
0
0
0
0
0
0
0
0
0
0
0
0
0
0
0
0
0
0
0
0
0
0
0
0
0
0
5.52783
5.53996
5.54196
5.54121
5.54439
4.52522
5.16545
5.22779
16.4546
0
0
0
0
0
0
0
0
0
0
0
0
0
0
0
0
0
0
0
0
0
0
0
0
0
0
0
0
0
0
0
0
0
0
0
0
0
0
0
0
0
3.60674
3.66202
3.98033
3.98143
3.98244
3.98396
3.23505
3.31189
11.5415
0
0
0
0
0
0
0
0
0
0
0
0
0
0
0
0
0
0
0
0
0
0
0
0
0
0
0
0
0
0
0
0
0
0
0
0
0
0
0
0
0
6.01719
6.36025
5.75447
5.75462
5.75506
5.75536
5.75588
5.76119
8.30564
0
0
0
0
0
0
0
0
0
0
0
0
0
0
0
0
0
0
0
0
0
0
0
0
0
0
0
0
0
0
0
0
0
0
0
0
0
0
0
0
0
3.29611
2.74112
2.74112
2.74112
2.74112
2.74112
2.74112
2.74112
2.74112
0
0
0
0
0
0
0
0
0
0
0
0
0
0
0
0
0
0
0
0
0
0
0
0
0
0
0
0
0
0
0
0
0
0
0
0
0
0
0
0
0
0
0
0
0
0
0
0
0
0
0
0
0
0
0
0
0
0
0
0
0
0
0
0
0
0
0
0
0
0
0
0
0
0
0
0
0
0
0
0
0
0
0
0
0
0
0
0
0
0
0
