# vtk DataFile Version 4.0
Nusif Fluid VTK output
ASCII
DATASET STRUCTURED_POINTS
DIMENSIONS 50 20 1
ORIGIN 0 0 0 
SPACING 0.2 0.2 1
POINT_DATA 1000 

VECTORS velocity double
0.0457499 -0.0438886  0
0.137061 -0.0444046  0
0.229051 -0.0454183  0
0.323352 -0.0468662  0
0.421046 -0.0488879  0
0.523236 -0.0515272  0
0.631241 -0.0548621  0
0.746491 -0.058915  0
0.870287 -0.063541  0
1.00339 -0.0683315  0
1.14532 -0.0724635  0
1.29347 -0.0746567  0
1.44279 -0.073727  0
1.58714 -0.0697519  0
1.72083 -0.0631243  0
1.84094 -0.0562006  0
1.94799 -0.0501107  0
2.04289 -0.0440984  0
2.12397 -0.0363126  0
2.19004 -0.0290902  0
2.24347 -0.0237005  0
2.28845 -0.0206483  0
2.32943 -0.01969  0
2.36815 -0.0184081  0
2.39969 -0.0125017  0
2.41689 -0.00407389  0
2.42401 -0.00242099  0
2.43118 -0.0041248  0
2.43605 -0.000120581  0
2.42523 0.0115554  0
2.42162 -0.00763024  0
1.21463 0.00319252  0
0 0  0
0 0  0
0 0  0
0 0  0
0 0  0
0 0  0
0 0  0
0 0  0
0 0  0
0 0  0
0 0  0
0 0  0
0 0  0
0 0  0
0 0  0
0 0  0
0 0  0
0 0  0
0.0453225 -0.132014  0
0.135722 -0.133545  0
0.226804 -0.136422  0
0.320076 -0.140685  0
0.416455 -0.146528  0
0.517058 -0.154217  0
0.623102 -0.163976  0
0.735994 -0.175841  0
0.857055 -0.189491  0
0.987151 -0.203734  0
1.12612 -0.216229  0
1.27161 -0.222916  0
1.41806 -0.219704  0
1.55848 -0.20709  0
1.68576 -0.185351  0
1.79728 -0.164208  0
1.89674 -0.147307  0
1.9873 -0.131054  0
2.06474 -0.106606  0
2.126 -0.0848804  0
2.17501 -0.0690738  0
2.21665 -0.0606517  0
2.25623 -0.0590001  0
2.29721 -0.0575458  0
2.33493 -0.0413738  0
2.35596 -0.0121881  0
2.36258 -0.00680404  0
2.3718 -0.0148884  0
2.38915 -0.0103302  0
2.40358 0.0190844  0
2.4076 -0.0152605  0
1.2038 -0.00443772  0
0 0  0
0 0  0
0 0  0
0 0  0
0 0  0
0 0  0
0 0  0
0 0  0
0 0  0
0 0  0
0 0  0
0 0  0
0 0  0
0 0  0
0 0  0
0 0  0
0 0  0
0 0  0
0.0444851 -0.219782  0
0.13326 -0.222265  0
0.222667 -0.226758  0
0.314044 -0.233557  0
0.408093 -0.242801  0
0.505713 -0.254899  0
0.608072 -0.270434  0
0.716416 -0.289378  0
0.831866 -0.311254  0
0.955142 -0.334154  0
1.08658 -0.355032  0
1.22481 -0.366678  0
1.36391 -0.36033  0
1.49614 -0.337942  0
1.61096 -0.295413  0
1.70629 -0.259808  0
1.79306 -0.236769  0
1.87826 -0.216146  0
1.95184 -0.171325  0
2.00791 -0.136299  0
2.05405 -0.111565  0
2.09433 -0.0988377  0
2.13303 -0.0978777  0
2.1754 -0.100775  0
2.2208 -0.0800161  0
2.25574 -0.0285848  0
2.27636 -0.0170352  0
2.29036 -0.0272607  0
2.2961 -0.0204193  0
2.36701 -0.00268058  0
2.42276 -0.00763024  0
1.2038 -0.00763024  0
0 0  0
0 0  0
0 0  0
0 0  0
0 0  0
0 0  0
0 0  0
0 0  0
0 0  0
0 0  0
0 0  0
0 0  0
0 0  0
0 0  0
0 0  0
0 0  0
0 0  0
0 0  0
0.0434562 -0.306  0
0.130317 -0.30932  0
0.217789 -0.315292  0
0.306862 -0.324175  0
0.398002 -0.336174  0
0.49163 -0.351614  0
0.588841 -0.372072  0
0.690889 -0.396956  0
0.797877 -0.424982  0
0.909472 -0.454169  0
1.02608 -0.481922  0
1.14821 -0.499019  0
1.27221 -0.489953  0
1.39146 -0.458639  0
1.49094 -0.38784  0
1.56948 -0.340105  0
1.64533 -0.317897  0
1.7256 -0.299296  0
1.80241 -0.237665  0
1.87199 -0.194994  0
1.93135 -0.157777  0
1.98013 -0.141056  0
2.02416 -0.13777  0
2.05646 -0.134947  0
2.06814 -0.102288  0
2.1603 -0.0716145  0
2.27239 -0.0126522  0
2.28792 -0.0164971  0
2.28981 -0.0102096  0
1.14805 -0.0102096  0
0 0  0
0 0  0
0 0  0
0 0  0
0 0  0
0 0  0
0 0  0
0 0  0
0 0  0
0 0  0
0 0  0
0 0  0
0 0  0
0 0  0
0 0  0
0 0  0
0 0  0
0 0  0
0 0  0
0 0  0
0.0424938 -0.390568  0
0.127597 -0.394698  0
0.213506 -0.402129  0
0.30047 -0.412257  0
0.388186 -0.42577  0
0.476765 -0.443069  0
0.567934 -0.467871  0
0.662953 -0.497115  0
0.758545 -0.526303  0
0.854908 -0.559719  0
0.949159 -0.586152  0
1.04168 -0.60834  0
1.13949 -0.601312  0
1.23893 -0.564831  0
1.33297 -0.474293  0
1.42195 -0.420606  0
1.49677 -0.387472  0
1.52759 -0.340211  0
1.66065 -0.306739  0
1.82694 -0.114485  0
1.89909 -0.0915847  0
1.96775 -0.0822221  0
2.01524 -0.0792026  0
2.02841 -0.0733095  0
2.04597 -0.0511439  0
1.03407 -0.0511439  0
0 0  0
0 0  0
0 0  0
0 0  0
0 0  0
0 0  0
0 0  0
0 0  0
0 0  0
0 0  0
0 0  0
0 0  0
0 0  0
0 0  0
0 0  0
0 0  0
0 0  0
0 0  0
0 0  0
0 0  0
0 0  0
0 0  0
0 0  0
0 0  0
0.0416611 -0.473639  0
0.125385 -0.478825  0
0.210663 -0.488128  0
0.295315 -0.4968  0
0.378124 -0.510624  0
0.460708 -0.528281  0
0.546668 -0.558729  0
0.633122 -0.586676  0
0.715962 -0.614118  0
0.800139 -0.651381  0
0.870146 -0.657956  0
0.938067 -0.696436  0
0.995822 -0.668222  0
1.01262 -0.61359  0
1.16795 -0.566435  0
1.37146 -0.232301  0
1.43457 -0.209148  0
1.48855 -0.170106  0
0.763797 -0.170106  0
0 0  0
0 0  0
0 0  0
0 0  0
0 0  0
0 0  0
0 0  0
0 0  0
0 0  0
0 0  0
0 0  0
0 0  0
0 0  0
0 0  0
0 0  0
0 0  0
0 0  0
0 0  0
0 0  0
0 0  0
0 0  0
0 0  0
0 0  0
0 0  0
0 0  0
0 0  0
0 0  0
0 0  0
0 0  0
0 0  0
0 0  0
0.0410776 -0.55558  0
0.123929 -0.562161  0
0.206754 -0.571878  0
0.287566 -0.577484  0
0.364491 -0.588635  0
0.440701 -0.608015  0
0.521925 -0.645139  0
0.599331 -0.663362  0
0.663144 -0.683567  0
0.691726 -0.694159  0
0.820654 -0.68954  0
0.938117 -0.368696  0
0.933921 -0.342511  0
0.976906 -0.306795  0
0.506311 -0.306795  0
0 0  0
0 0  0
0 0  0
0 0  0
0 0  0
0 0  0
0 0  0
0 0  0
0 0  0
0 0  0
0 0  0
0 0  0
0 0  0
0 0  0
0 0  0
0 0  0
0 0  0
0 0  0
0 0  0
0 0  0
0 0  0
0 0  0
0 0  0
0 0  0
0 0  0
0 0  0
0 0  0
0 0  0
0 0  0
0 0  0
0 0  0
0 0  0
0 0  0
0 0  0
0 0  0
0.0434895 -0.639822  0
0.121799 -0.638497  0
0.203823 -0.659886  0
0.276847 -0.642829  0
0.350257 -0.673125  0
0.414947 -0.663898  0
0.432048 -0.687061  0
0.540083 -0.692827  0
0.660927 -0.356075  0
0.682731 -0.34708  0
0.345863 -0.34708  0
0 0  0
0 0  0
0 0  0
0 0  0
0 0  0
0 0  0
0 0  0
0 0  0
0 0  0
0 0  0
0 0  0
0 0  0
0 0  0
0 0  0
0 0  0
0 0  0
0 0  0
0 0  0
0 0  0
0 0  0
0 0  0
0 0  0
0 0  0
0 0  0
0 0  0
0 0  0
0 0  0
0 0  0
0 0  0
0 0  0
0 0  0
0 0  0
0 0  0
0 0  0
0 0  0
0 0  0
0 0  0
0 0  0
0 0  0
0.0384924 -0.341656  0
0.133688 -0.336659  0
0.201489 -0.353545  0
0.28366 -0.334324  0
0.356431 -0.360357  0
0.39812 -0.340499  0
0.435079 -0.34353  0
0.216024 -0.34353  0
0 0  0
0 0  0
0 0  0
0 0  0
0 0  0
0 0  0
0 0  0
0 0  0
0 0  0
0 0  0
0 0  0
0 0  0
0 0  0
0 0  0
0 0  0
0 0  0
0 0  0
0 0  0
0 0  0
0 0  0
0 0  0
0 0  0
0 0  0
0 0  0
0 0  0
0 0  0
0 0  0
0 0  0
0 0  0
0 0  0
0 0  0
0 0  0
0 0  0
0 0  0
0 0  0
0 0  0
0 0  0
0 0  0
0 0  0
0 0  0
0 0  0
0 0  0
0 0  0
0 0  0
0 0  0
0 0  0
0 0  0
0 0  0
0 0  0
0 0  0
0 0  0
0 0  0
0 0  0
0 0  0
0 0  0
0 0  0
0 0  0
0 0  0
0 0  0
0 0  0
0 0  0
0 0  0
0 0  0
0 0  0
0 0  0
0 0  0
0 0  0
0 0  0
0 0  0
0 0  0
0 0  0
0 0  0
0 0  0
0 0  0
0 0  0
0 0  0
0 0  0
0 0  0
0 0  0
0 0  0
0 0  0
0 0  0
0 0  0
0 0  0
0 0  0
0 0  0
0 0  0
0 0  0
0 0  0
0 0  0
0 0  0
0 0  0
0 0  0
0 0  0
0 0  0
0 0  0
0 0  0
0 0  0
0 0  0
0 0  0
0 0  0
0 0  0
0 0  0
0 0  0
0 0  0
0 0  0
0 0  0
0 0  0
0 0  0
0 0  0
0 0  0
0 0  0
0 0  0
0 0  0
0 0  0
0 0  0
0 0  0
0 0  0
0 0  0
0 0  0
0 0  0
0 0  0
0 0  0
0 0  0
0 0  0
0 0  0
0 0  0
0 0  0
0 0  0
0 0  0
0 0  0
0 0  0
0 0  0
0 0  0
0 0  0
0 0  0
0 0  0
0 0  0
0 0  0
0 0  0
0 0  0
0 0  0
0 0  0
0 0  0
0 0  0
0 0  0
0 0  0
0 0  0
0 0  0
0 0  0
0 0  0
0 0  0
0 0  0
0 0  0
0 0  0
0 0  0
0 0  0
0 0  0
0 0  0
0 0  0
0 0  0
0 0  0
0 0  0
0 0  0
0 0  0
0 0  0
0 0  0
0 0  0
0 0  0
0 0  0
0 0  0
0 0  0
0 0  0
0 0  0
0 0  0
0 0  0
0 0  0
0 0  0
0 0  0
0 0  0
0 0  0
0 0  0
0 0  0
0 0  0
0 0  0
0 0  0
0 0  0
0 0  0
0 0  0
0 0  0
0 0  0
0 0  0
0 0  0
0 0  0
0 0  0
0 0  0
0 0  0
0 0  0
0 0  0
0 0  0
0 0  0
0 0  0
0 0  0
0 0  0
0 0  0
0 0  0
0 0  0
0 0  0
0 0  0
0 0  0
0 0  0
0 0  0
0 0  0
0 0  0
0 0  0
0 0  0
0 0  0
0 0  0
0 0  0
0 0  0
0 0  0
0 0  0
0 0  0
0 0  0
0 0  0
0 0  0
0 0  0
0 0  0
0 0  0
0 0  0
0 0  0
0 0  0
0 0  0
0 0  0
0 0  0
0 0  0
0 0  0
0 0  0
0 0  0
0 0  0
0 0  0
0 0  0
0 0  0
0 0  0
0 0  0
0 0  0
0 0  0
0 0  0
0 0  0
0 0  0
0 0  0
0 0  0
0 0  0
0 0  0
0 0  0
0 0  0
0 0  0
0 0  0
0 0  0
0 0  0
0 0  0
0 0  0
0 0  0
0 0  0
0 0  0
0 0  0
0 0  0
0 0  0
0 0  0
0 0  0
0 0  0
0 0  0
0 0  0
0 0  0
0 0  0
0 0  0
0 0  0
0 0  0
0 0  0
0 0  0
0 0  0
0 0  0
0 0  0
0 0  0
0 0  0
0 0  0
0 0  0
0 0  0
0 0  0
0 0  0
0 0  0
0 0  0
0 0  0
0 0  0
0 0  0
0 0  0
0 0  0
0 0  0
0 0  0
0 0  0
0 0  0
0 0  0
0 0  0
0 0  0
0 0  0
0 0  0
0 0  0
0 0  0
0 0  0
0 0  0
0 0  0
0 0  0
0 0  0
0 0  0
0 0  0
0 0  0
0 0  0
0 0  0
0 0  0
0 0  0
0 0  0
0 0  0
0 0  0
0 0  0
0 0  0
0 0  0
0 0  0
0 0  0
0 0  0
0 0  0
0 0  0
0 0  0
0 0  0
0 0  0
0 0  0
0 0  0
0 0  0
0 0  0
0 0  0
0 0  0
0 0  0
0 0  0
0 0  0
0 0  0
0 0  0
0 0  0
0 0  0
0 0  0
0 0  0
0 0  0
0 0  0
0 0  0
0 0  0
0 0  0
0 0  0
0 0  0
0 0  0
0 0  0
0 0  0
0 0  0
0 0  0
0 0  0
0 0  0
0 0  0
0 0  0
0 0  0
0 0  0
0 0  0
0 0  0
0 0  0
0 0  0
0 0  0
0 0  0
0 0  0
0 0  0
0 0  0
0 0  0
0 0  0
0 0  0
0 0  0
0 0  0
0 0  0
0 0  0
0 0  0
0 0  0
0 0  0
0 0  0
0 0  0
0 0  0
0 0  0
0 0  0
0 0  0
0 0  0
0 0  0
0 0  0
0 0  0
0 0  0
0 0  0
0 0  0
0 0  0
0 0  0
0 0  0
0 0  0
0 0  0
0 0  0
0 0  0
0 0  0
0 0  0
0 0  0
0 0  0
0 0  0
0 0  0
0 0  0
0 0  0
0 0  0
0 0  0
0 0  0
0 0  0
0 0  0
0 0  0
0 0  0
0 0  0
0 0  0
0 0  0
0 0  0
0 0  0
0 0  0
0 0  0
0 0  0
0 0  0
0 0  0
0 0  0
0 0  0
0 0  0
0 0  0
0 0  0
0 0  0
0 0  0
0 0  0
0 0  0
0 0  0
0 0  0
0 0  0
0 0  0
0 0  0
0 0  0
0 0  0
0 0  0
0 0  0
0 0  0
0 0  0
0 0  0
0 0  0
0 0  0
0 0  0
0 0  0
0 0  0
0 0  0
0 0  0
0 0  0
0 0  0
0 0  0
0 0  0
0 0  0
0 0  0
0 0  0
0 0  0
0 0  0
0 0  0
0 0  0
0 0  0
0 0  0
0 0  0
0 0  0
0 0  0
0 0  0
0 0  0
0 0  0
0 0  0
0 0  0
0 0  0
0 0  0
0 0  0
0 0  0
0 0  0
0 0  0
0 0  0
0 0  0
0 0  0
0 0  0
0 0  0
0 0  0
0 0  0
0 0  0
0 0  0
0 0  0
0 0  0
0 0  0
0 0  0
0 0  0
0 0  0
0 0  0
0 0  0
0 0  0
0 0  0
0 0  0
0 0  0
0 0  0
0 0  0
0 0  0
0 0  0
0 0  0
0 0  0
0 0  0
0 0  0
0 0  0
0 0  0
0 0  0
0 0  0
0 0  0
0 0  0
0 0  0
0 0  0
0 0  0
0 0  0
0 0  0
0 0  0
0 0  0
0 0  0
0 0  0
0 0  0
0 0  0
0 0  0
0 0  0
0 0  0
0 0  0
0 0  0
0 0  0
0 0  0
0 0  0
0 0  0
0 0  0
0 0  0
0 0  0
0 0  0
0 0  0
0 0  0
0 0  0
0 0  0
0 0  0
0 0  0
0 0  0
0 0  0
0 0  0
0 0  0
0 0  0
0 0  0
0 0  0
0 0  0
0 0  0
0 0  0
0 0  0
0 0  0
0 0  0
0 0  0
0 0  0
0 0  0
0 0  0
0 0  0
0 0  0
0 0  0
0 0  0
0 0  0
0 0  0
0 0  0
0 0  0
0 0  0
0 0  0
0 0  0
0 0  0
0 0  0
0 0  0
0 0  0
0 0  0
0 0  0
0 0  0
0 0  0
0 0  0
0 0  0
0 0  0
0 0  0
0 0  0

SCALARS pressure double 1
LOOKUP_TABLE default
1.47003
1.46963
1.46759
1.46332
1.45605
1.44523
1.43037
1.41046
1.38398
1.34862
1.30147
1.23992
1.16309
1.07409
0.979491
0.887404
0.801136
0.721779
0.6521
0.598443
0.558597
0.527349
0.497701
0.464007
0.424838
0.383916
0.347137
0.302892
0.239157
0.143709
0
0
0
0
0
0
0
0
0
0
0
0
0
0
0
0
0
0
0
0
1.26152
1.26053
1.25823
1.25286
1.24442
1.23193
1.21482
1.19227
1.16287
1.12459
1.07505
1.01203
0.934114
0.844278
0.750044
0.662286
0.581345
0.504331
0.434301
0.38685
0.354763
0.330963
0.307513
0.276369
0.235454
0.188802
0.163169
0.131132
0.0790209
0
-0.00131692
0
0
0
0
0
0
0
0
0
0
0
0
0
0
0
0
0
0
0
1.04794
1.04659
1.0435
1.03694
1.02624
1.01082
0.989566
0.961746
0.926817
0.882973
0.828615
0.763824
0.68487
0.593397
0.498192
0.42135
0.35252
0.278197
0.199173
0.167528
0.15037
0.141358
0.131133
0.106969
0.0644441
-0.0172526
-0.00783845
-0.0129229
-0.0413162
0
0
0
0
0
0
0
0
0
0
0
0
0
0
0
0
0
0
0
0
0
0.829433
0.828103
0.824188
0.816411
0.803485
0.783983
0.756621
0.720905
0.678192
0.625617
0.561882
0.498728
0.422696
0.330149
0.225099
0.173977
0.129935
0.0618519
-0.0722817
-0.0552067
-0.0539479
-0.0412724
-0.0270473
-0.0364537
-0.0476481
0
0
0
0
0
0
0
0
0
0
0
0
0
0
0
0
0
0
0
0
0
0
0
0
0
0.607025
0.605918
0.602018
0.593388
0.579014
0.555265
0.5201
0.472181
0.421756
0.358546
0.269668
0.22414
0.163095
0.0788332
-0.091189
-0.0736367
-0.0674823
-0.075786
0
0
0
0
0
0
0
0
0
0
0
0
0
0
0
0
0
0
0
0
0
0
0
0
0
0
0
0
0
0
0
0
0.381238
0.380741
0.378624
0.369542
0.356917
0.330689
0.286839
0.213675
0.166531
0.10306
-0.0854463
-0.0465807
-0.0770041
-0.0694745
0
0
0
0
0
0
0
0
0
0
0
0
0
0
0
0
0
0
0
0
0
0
0
0
0
0
0
0
0
0
0
0
0
0
0
0
0.151976
0.151959
0.156032
0.143875
0.143747
0.118922
0.0754362
-0.083298
-0.0814527
-0.0375743
0
0
0
0
0
0
0
0
0
0
0
0
0
0
0
0
0
0
0
0
0
0
0
0
0
0
0
0
0
0
0
0
0
0
0
0
0
0
0
0
-0.0834763
-0.0895302
-0.0575057
-0.101849
-0.0493414
-0.0807115
-0.0288625
0
0
0
0
0
0
0
0
0
0
0
0
0
0
0
0
0
0
0
0
0
0
0
0
0
0
0
0
0
0
0
0
0
0
0
0
0
0
0
0
0
0
0
0
0
0
0
0
0
0
0
0
0
0
0
0
0
0
0
0
0
0
0
0
0
0
0
0
0
0
0
0
0
0
0
0
0
0
0
0
0
0
0
0
0
0
0
0
0
0
0
0
0
0
0
0
0
0
0
0
0
0
0
0
0
0
0
0
0
0
0
0
0
0
0
0
0
0
0
0
0
0
0
0
0
0
0
0
0
0
0
0
0
0
0
0
0
0
0
0
0
0
0
0
0
0
0
0
0
0
0
0
0
0
0
0
0
0
0
0
0
0
0
0
0
0
0
0
0
0
0
0
0
0
0
0
0
0
0
0
0
0
0
0
0
0
0
0
0
0
0
0
0
0
0
0
0
0
0
0
0
0
0
0
0
0
0
0
0
0
0
0
0
0
0
0
0
0
0
0
0
0
0
0
0
0
0
0
0
0
0
0
0
0
0
0
0
0
0
0
0
0
0
0
0
0
0
0
0
0
0
0
0
0
0
0
0
0
0
0
0
0
0
0
0
0
0
0
0
0
0
0
0
0
0
0
0
0
0
0
0
0
0
0
0
0
0
0
0
0
0
0
0
0
0
0
0
0
0
0
0
0
0
0
0
0
0
0
0
0
0
0
0
0
0
0
0
0
0
0
0
0
0
0
0
0
0
0
0
0
0
0
0
0
0
0
0
0
0
0
0
0
0
0
0
0
0
0
0
0
0
0
0
0
0
0
0
0
0
0
0
0
0
0
0
0
0
0
0
0
0
0
0
0
0
0
0
0
0
0
0
0
0
0
0
0
0
0
0
0
0
0
0
0
0
0
0
0
0
0
0
0
0
0
0
0
0
0
0
0
0
0
0
0
0
0
0
0
0
0
0
0
0
0
0
0
0
0
0
0
0
0
0
0
0
0
0
0
0
0
0
0
0
0
0
0
0
0
0
0
0
0
0
0
0
0
0
0
0
0
0
0
0
0
0
0
0
0
0
0
0
0
0
0
0
0
0
0
0
0
0
0
0
0
0
0
0
0
0
0
0
0
0
0
0
0
0
0
0
0
0
0
0
0
0
0
0
0
0
0
0
0
0
0
0
0
0
0
0
0
0
0
0
0
0
0
0
0
0
0
0
0
0
0
0
0
0
0
0
0
0
0
0
0
0
0
0
0
0
0
0
0
0
0
0
0
0
0
0
0
0
0
0
0
0
0
0
0
0
0
0
0
0
0
0
0
0
0
0
0
0
0
0
0
0
0
0
0
0
0
0
0
0
0
0
0
0
0
0
0
0
0
0
0
0
0
0
0
0
0
0
0
0
0
0
0
0
0
0
0
0
0
0
0
0
0
0
0
0
0
0
0
0
0
0
0
0
0
0
0
0
0
0
SCALARS rhs double 1
LOOKUP_TABLE default
-4.83514
-5.05696
-5.11484
-5.16299
-5.22375
-5.3011
-5.39943
-5.52186
-5.66734
-5.82528
-5.96399
-6.034
-5.99405
-5.85748
-5.65275
-5.46248
-5.31488
-5.1844
-5.04044
-4.93788
-4.8839
-4.86413
-4.85613
-4.82742
-4.77831
-4.774
-4.78564
-4.78109
-4.79627
-4.79926
-0.369493
0
0
0
0
0
0
0
0
0
0
0
0
0
0
0
0
0
0
0
0.0418909
-0.146604
-0.18413
-0.212505
-0.252312
-0.306977
-0.380571
-0.476404
-0.594104
-0.7242
-0.841385
-0.88423
-0.808576
-0.642183
-0.399398
-0.22874
-0.13576
-0.0375745
0.121837
0.190415
0.196586
0.172007
0.154634
0.211526
0.31568
0.251512
0.163629
0.190579
0.322285
-0.772484
-0.0778149
0
0
0
0
0
0
0
0
0
0
0
0
0
0
0
0
0
0
0
0.0038276
-0.158146
-0.187942
-0.210767
-0.243337
-0.288639
-0.354253
-0.440546
-0.545424
-0.660813
-0.773288
-0.783963
-0.641493
-0.406896
-0.0755733
0.033065
0.0184503
0.118285
0.281838
0.270186
0.206038
0.144553
0.104746
0.190149
0.493753
2.00285
-0.205267
-0.944981
-0.369493
0
0
0
0
0
0
0
0
0
0
0
0
0
0
0
0
0
0
0
0
0
-0.0160847
-0.151452
-0.175001
-0.192117
-0.214906
-0.246645
-0.304427
-0.380316
-0.448655
-0.531598
-0.630814
-0.565519
-0.355564
-0.0198452
0.26214
0.163487
0.0292673
0.311406
20.4824
14.0986
9.84309
5.06121
2.00285
-0.785056
-0.369493
0
0
0
0
0
0
0
0
0
0
0
0
0
0
0
0
0
0
0
0
0
0
0
0
0
-0.0371275
-0.146851
-0.165234
-0.171491
-0.176465
-0.192376
-0.24729
-0.316731
-0.301002
-0.363406
-0.501636
-0.299152
-0.0994424
0.424804
36.6283
27.9524
16.0003
8.42241
0
0
0
0
0
0
0
0
0
0
0
0
0
0
0
0
0
0
0
0
0
0
0
0
0
0
0
0
0
0
0
0
-0.0588912
-0.147668
-0.164416
-0.142502
-0.128798
-0.133277
-0.199113
-0.326733
-0.237717
-0.266359
-0.517376
-0.699701
9.86908
32.6903
0
0
0
0
0
0
0
0
0
0
0
0
0
0
0
0
0
0
0
0
0
0
0
0
0
0
0
0
0
0
0
0
0
0
0
0
-0.151783
-0.22886
-0.195545
-0.219478
-0.127851
-0.174642
-0.217907
-0.417847
-1.40557
-0.471985
2.53607
14.3387
26.3021
0
0
0
0
0
0
0
0
0
0
0
0
0
0
0
0
0
0
0
0
0
0
0
0
0
0
0
0
0
0
0
0
0
0
0
0
0
-0.905937
-0.951856
-1.00788
-1.40134
-1.44469
-0.450289
0.732656
3.70181
7.89906
8.9678
11.6117
27.2717
0
0
0
0
0
0
0
0
0
0
0
0
0
0
0
0
0
0
0
0
0
0
0
0
0
0
0
0
0
0
0
0
0
0
0
0
0
0
2.45787
2.59584
4.01582
4.53242
6.43299
7.47839
9.23983
7.89527
5.98596
8.49533
41.2731
0
0
0
0
0
0
0
0
0
0
0
0
0
0
0
0
0
0
0
0
0
0
0
0
0
0
0
0
0
0
0
0
0
0
0
0
0
0
0
9.36633
9.33066
8.04142
9.25902
7.69325
7.78758
9.09454
10.208
11.1703
21.7759
3.2041
0
0
0
0
0
0
0
0
0
0
0
0
0
0
0
0
0
0
0
0
0
0
0
0
0
0
0
0
0
0
0
0
0
0
0
0
0
0
0
7.92952
10.0992
10.1145
8.86149
11.2589
12.4355
10.8064
8.57914
8.60392
43.2779
0
0
0
0
0
0
0
0
0
0
0
0
0
0
0
0
0
0
0
0
0
0
0
0
0
0
0
0
0
0
0
0
0
0
0
0
0
0
0
0
13.2058
10.8439
11.0393
13.0106
10.7272
10.2862
9.48307
9.57063
8.67562
33.2233
0
0
0
0
0
0
0
0
0
0
0
0
0
0
0
0
0
0
0
0
0
0
0
0
0
0
0
0
0
0
0
0
0
0
0
0
0
0
0
0
8.71388
9.82855
9.83715
7.65861
8.9401
7.02241
6.34758
6.44313
5.90605
26.1906
0
0
0
0
0
0
0
0
0
0
0
0
0
0
0
0
0
0
0
0
0
0
0
0
0
0
0
0
0
0
0
0
0
0
0
0
0
0
0
0
7.061
5.55892
5.71513
6.83869
5.56628
5.6724
5.42452
5.43401
4.26976
17.1298
0
0
0
0
0
0
0
0
0
0
0
0
0
0
0
0
0
0
0
0
0
0
0
0
0
0
0
0
0
0
0
0
0
0
0
0
0
0
0
0
6.55202
6.55536
6.55982
5.31204
5.40986
6.30896
5.08555
5.09432
5.2091
10.3371
0
0
0
0
0
0
0
0
0
0
0
0
0
0
0
0
0
0
0
0
0
0
0
0
0
0
0
0
0
0
0
0
0
0
0
0
0
0
0
0
5.52783
5.53996
5.54196
5.54121
5.54439
4.52522
5.16545
5.22779
16.4546
0
0
0
0
0
0
0
0
0
0
0
0
0
0
0
0
0
0
0
0
0
0
0
0
0
0
0
0
0
0
0
0
0
0
0
0
0
0
0
0
0
3.60674
3.66202
3.98033
3.98143
3.98244
3.98396
3.23505
3.31189
11.5415
0
0
0
0
0
0
0
0
0
0
0
0
0
0
0
0
0
0
0
0
0
0
0
0
0
0
0
0
0
0
0
0
0
0
0
0
0
0
0
0
0
6.01719
6.36025
5.75447
5.75462
5.75506
5.75536
5.75588
5.76119
8.30564
0
0
0
0
0
0
0
0
0
0
0
0
0
0
0
0
0
0
0
0
0
0
0
0
0
0
0
0
0
0
0
0
0
0
0
0
0
0
0
0
0
3.29611
2.74112
2.74112
2.74112
2.74112
2.74112
2.74112
2.74112
2.74112
0
0
0
0
0
0
0
0
0
0
0
0
0
0
0
0
0
0
0
0
0
0
0
0
0
0
0
0
0
0
0
0
0
0
0
0
0
0
0
0
0
0
0
0
0
0
0
0
0
0
0
0
0
0
0
0
0
0
0
0
0
0
0
0
0
0
0
0
0
0
0
0
0
0
0
0
0
0
0
0
0
0
0
0
0
0
0
0
0
0
0
