# vtk DataFile Version 4.0
Nusif Fluid VTK output
ASCII
DATASET STRUCTURED_POINTS
DIMENSIONS 50 20 1
ORIGIN 0 0 0 
SPACING 0.2 0.2 1
POINT_DATA 1000 

VECTORS velocity double
0.0404526 -0.0441054  0
0.121678 -0.0440838  0
0.203277 -0.0445758  0
0.285357 -0.0446922  0
0.368042 -0.0451951  0
0.451377 -0.0455814  0
0.535762 -0.0461841  0
0.621864 -0.0469606  0
0.710149 -0.0485468  0
0.801004 -0.0497465  0
0.893938 -0.0503077  0
0.987019 -0.0503586  0
1.08065 -0.0506015  0
1.17697 -0.0526198  0
1.27724 -0.0550239  0
1.38031 -0.055107  0
1.48011 -0.0518674  0
1.57112 -0.046094  0
1.65148 -0.0413803  0
1.72331 -0.0374493  0
1.78936 -0.0355715  0
1.85159 -0.0337811  0
1.91152 -0.0330069  0
1.96949 -0.0321306  0
2.02657 -0.0317202  0
2.08328 -0.0318522  0
2.14104 -0.0328087  0
2.20085 -0.0337467  0
2.25779 -0.029939  0
2.30585 -0.0249054  0
2.34333 -0.01949  0
2.37079 -0.0154435  0
2.39305 -0.0140538  0
2.4158 -0.0175789  0
2.4475 -0.0202694  0
2.48405 -0.0212603  0
2.50326 -0.00572029  0
2.48583 0.0163997  0
2.44182 0.0208247  0
2.41762 0  0
1.20881 0  0
0 0  0
0 0  0
0 0  0
0 0  0
0 0  0
0 0  0
0 0  0
0 0  0
0 0  0
0.0407156 -0.131914  0
0.121816 -0.132721  0
0.203501 -0.133253  0
0.285688 -0.134223  0
0.36808 -0.135059  0
0.45112 -0.136146  0
0.534713 -0.137479  0
0.619173 -0.140202  0
0.70593 -0.144516  0
0.795881 -0.148586  0
0.886817 -0.149617  0
0.976595 -0.148011  0
1.06468 -0.148477  0
1.15428 -0.154536  0
1.24959 -0.16253  0
1.34791 -0.162828  0
1.44302 -0.152813  0
1.52918 -0.136046  0
1.60545 -0.121782  0
1.67439 -0.11152  0
1.7391 -0.105975  0
1.80126 -0.101475  0
1.86149 -0.0991895  0
1.92035 -0.0964264  0
1.97785 -0.0955685  0
2.03516 -0.0955526  0
2.09418 -0.0994257  0
2.15736 -0.103605  0
2.21616 -0.0892887  0
2.26386 -0.0748438  0
2.30248 -0.0594046  0
2.33278 -0.0474269  0
2.35671 -0.0430316  0
2.38125 -0.0492806  0
2.40902 -0.0607918  0
2.44224 -0.0640776  0
2.47665 -0.0297989  0
2.49299 0.0314665  0
2.49432 0.0416493  0
2.45597 0.0208247  0
1.20881 0  0
0 0  0
0 0  0
0 0  0
0 0  0
0 0  0
0 0  0
0 0  0
0 0  0
0 0  0
0.0402501 -0.219963  0
0.121854 -0.220934  0
0.203818 -0.222206  0
0.285778 -0.223197  0
0.367939 -0.224174  0
0.449659 -0.225167  0
0.53085 -0.226481  0
0.612094 -0.23075  0
0.696009 -0.238285  0
0.78403 -0.246118  0
0.871847 -0.244574  0
0.95491 -0.239042  0
1.03386 -0.237711  0
1.11378 -0.248478  0
1.20141 -0.264635  0
1.2904 -0.261413  0
1.37557 -0.24774  0
1.45645 -0.221622  0
1.52973 -0.199048  0
1.5978 -0.184654  0
1.66326 -0.176439  0
1.72703 -0.170207  0
1.78918 -0.166388  0
1.84969 -0.161747  0
1.90855 -0.160101  0
1.96644 -0.159578  0
2.02584 -0.167163  0
2.08975 -0.176406  0
2.1489 -0.144533  0
2.19946 -0.124599  0
2.24468 -0.10033  0
2.28351 -0.0822966  0
2.31655 -0.07266  0
2.34384 -0.0759927  0
2.36318 -0.087797  0
2.37619 -0.0918908  0
2.38245 -0.0481571  0
2.43262 -0.00901181  0
2.48856 0.0208247  0
1.24716 0.0208247  0
0 0  0
0 0  0
0 0  0
0 0  0
0 0  0
0 0  0
0 0  0
0 0  0
0 0  0
0 0  0
0.0404922 -0.307864  0
0.12143 -0.309032  0
0.203492 -0.311611  0
0.285272 -0.311139  0
0.365553 -0.311913  0
0.444534 -0.311465  0
0.521508 -0.312009  0
0.59798 -0.316541  0
0.677629 -0.329339  0
0.763336 -0.342319  0
0.845604 -0.331635  0
0.919797 -0.322489  0
0.991489 -0.31836  0
1.06396 -0.333546  0
1.14158 -0.358081  0
1.22102 -0.346323  0
1.29753 -0.331156  0
1.37602 -0.304264  0
1.45887 -0.279226  0
1.53158 -0.251945  0
1.60429 -0.253999  0
1.66995 -0.228759  0
1.73622 -0.242953  0
1.79819 -0.214327  0
1.85782 -0.232715  0
1.9176 -0.21132  0
1.96686 -0.230789  0
1.99655 -0.213095  0
2.07512 -0.191731  0
2.17469 -0.0746601  0
2.22033 -0.0604152  0
2.26678 -0.0503133  0
2.31052 -0.0436822  0
2.34743 -0.044291  0
2.36796 -0.0472746  0
2.35299 -0.0490736  0
2.35745 -0.0240786  0
1.19122 -0.0240786  0
0 0  0
0 0  0
0 0  0
0 0  0
0 0  0
0 0  0
0 0  0
0 0  0
0 0  0
0 0  0
0 0  0
0 0  0
0.0399202 -0.394708  0
0.120173 -0.39716  0
0.200933 -0.399946  0
0.280607 -0.39753  0
0.357331 -0.396018  0
0.431772 -0.394118  0
0.504255 -0.392418  0
0.575309 -0.396991  0
0.648334 -0.414841  0
0.725339 -0.432922  0
0.800714 -0.408605  0
0.877059 -0.402678  0
0.950443 -0.389952  0
1.01311 -0.403728  0
1.04286 -0.401905  0
1.14314 -0.393583  0
1.27749 -0.184362  0
1.35223 -0.172593  0
1.42764 -0.160579  0
1.51897 -0.141362  0
1.58917 -0.147963  0
1.66473 -0.126246  0
1.72685 -0.142747  0
1.7919 -0.116876  0
1.85639 -0.136462  0
1.91138 -0.115443  0
1.95796 -0.130243  0
1.97286 -0.106548  0
0.998277 -0.106548  0
0 0  0
0 0  0
0 0  0
0 0  0
0 0  0
0 0  0
0 0  0
0 0  0
0 0  0
0 0  0
0 0  0
0 0  0
0 0  0
0 0  0
0 0  0
0 0  0
0 0  0
0 0  0
0 0  0
0 0  0
0 0  0
0.0407963 -0.478794  0
0.117669 -0.476928  0
0.196837 -0.48682  0
0.269208 -0.469395  0
0.344403 -0.482746  0
0.416368 -0.460561  0
0.484728 -0.473503  0
0.554187 -0.463065  0
0.607835 -0.482137  0
0.634335 -0.475762  0
0.734802 -0.460115  0
0.866252 -0.22158  0
0.945607 -0.211428  0
1.00263 -0.216743  0
1.02707 -0.200953  0
0.521432 -0.200953  0
0 0  0
0 0  0
0 0  0
0 0  0
0 0  0
0 0  0
0 0  0
0 0  0
0 0  0
0 0  0
0 0  0
0 0  0
0 0  0
0 0  0
0 0  0
0 0  0
0 0  0
0 0  0
0 0  0
0 0  0
0 0  0
0 0  0
0 0  0
0 0  0
0 0  0
0 0  0
0 0  0
0 0  0
0 0  0
0 0  0
0 0  0
0 0  0
0 0  0
0 0  0
0.0375034 -0.259795  0
0.12283 -0.256502  0
0.189672 -0.264956  0
0.268583 -0.249337  0
0.338371 -0.264331  0
0.409944 -0.243305  0
0.48653 -0.257906  0
0.550599 -0.245107  0
0.600609 -0.254318  0
0.617898 -0.237881  0
0.317168 -0.237881  0
0 0  0
0 0  0
0 0  0
0 0  0
0 0  0
0 0  0
0 0  0
0 0  0
0 0  0
0 0  0
0 0  0
0 0  0
0 0  0
0 0  0
0 0  0
0 0  0
0 0  0
0 0  0
0 0  0
0 0  0
0 0  0
0 0  0
0 0  0
0 0  0
0 0  0
0 0  0
0 0  0
0 0  0
0 0  0
0 0  0
0 0  0
0 0  0
0 0  0
0 0  0
0 0  0
0 0  0
0 0  0
0 0  0
0 0  0
0 0  0
0 0  0
0 0  0
0 0  0
0 0  0
0 0  0
0 0  0
0 0  0
0 0  0
0 0  0
0 0  0
0 0  0
0 0  0
0 0  0
0 0  0
0 0  0
0 0  0
0 0  0
0 0  0
0 0  0
0 0  0
0 0  0
0 0  0
0 0  0
0 0  0
0 0  0
0 0  0
0 0  0
0 0  0
0 0  0
0 0  0
0 0  0
0 0  0
0 0  0
0 0  0
0 0  0
0 0  0
0 0  0
0 0  0
0 0  0
0 0  0
0 0  0
0 0  0
0 0  0
0 0  0
0 0  0
0 0  0
0 0  0
0 0  0
0 0  0
0 0  0
0 0  0
0 0  0
0 0  0
0 0  0
0 0  0
0 0  0
0 0  0
0 0  0
0 0  0
0 0  0
0 0  0
0 0  0
0 0  0
0 0  0
0 0  0
0 0  0
0 0  0
0 0  0
0 0  0
0 0  0
0 0  0
0 0  0
0 0  0
0 0  0
0 0  0
0 0  0
0 0  0
0 0  0
0 0  0
0 0  0
0 0  0
0 0  0
0 0  0
0 0  0
0 0  0
0 0  0
0 0  0
0 0  0
0 0  0
0 0  0
0 0  0
0 0  0
0 0  0
0 0  0
0 0  0
0 0  0
0 0  0
0 0  0
0 0  0
0 0  0
0 0  0
0 0  0
0 0  0
0 0  0
0 0  0
0 0  0
0 0  0
0 0  0
0 0  0
0 0  0
0 0  0
0 0  0
0 0  0
0 0  0
0 0  0
0 0  0
0 0  0
0 0  0
0 0  0
0 0  0
0 0  0
0 0  0
0 0  0
0 0  0
0 0  0
0 0  0
0 0  0
0 0  0
0 0  0
0 0  0
0 0  0
0 0  0
0 0  0
0 0  0
0 0  0
0 0  0
0 0  0
0 0  0
0 0  0
0 0  0
0 0  0
0 0  0
0 0  0
0 0  0
0 0  0
0 0  0
0 0  0
0 0  0
0 0  0
0 0  0
0 0  0
0 0  0
0 0  0
0 0  0
0 0  0
0 0  0
0 0  0
0 0  0
0 0  0
0 0  0
0 0  0
0 0  0
0 0  0
0 0  0
0 0  0
0 0  0
0 0  0
0 0  0
0 0  0
0 0  0
0 0  0
0 0  0
0 0  0
0 0  0
0 0  0
0 0  0
0 0  0
0 0  0
0 0  0
0 0  0
0 0  0
0 0  0
0 0  0
0 0  0
0 0  0
0 0  0
0 0  0
0 0  0
0 0  0
0 0  0
0 0  0
0 0  0
0 0  0
0 0  0
0 0  0
0 0  0
0 0  0
0 0  0
0 0  0
0 0  0
0 0  0
0 0  0
0 0  0
0 0  0
0 0  0
0 0  0
0 0  0
0 0  0
0 0  0
0 0  0
0 0  0
0 0  0
0 0  0
0 0  0
0 0  0
0 0  0
0 0  0
0 0  0
0 0  0
0 0  0
0 0  0
0 0  0
0 0  0
0 0  0
0 0  0
0 0  0
0 0  0
0 0  0
0 0  0
0 0  0
0 0  0
0 0  0
0 0  0
0 0  0
0 0  0
0 0  0
0 0  0
0 0  0
0 0  0
0 0  0
0 0  0
0 0  0
0 0  0
0 0  0
0 0  0
0 0  0
0 0  0
0 0  0
0 0  0
0 0  0
0 0  0
0 0  0
0 0  0
0 0  0
0 0  0
0 0  0
0 0  0
0 0  0
0 0  0
0 0  0
0 0  0
0 0  0
0 0  0
0 0  0
0 0  0
0 0  0
0 0  0
0 0  0
0 0  0
0 0  0
0 0  0
0 0  0
0 0  0
0 0  0
0 0  0
0 0  0
0 0  0
0 0  0
0 0  0
0 0  0
0 0  0
0 0  0
0 0  0
0 0  0
0 0  0
0 0  0
0 0  0
0 0  0
0 0  0
0 0  0
0 0  0
0 0  0
0 0  0
0 0  0
0 0  0
0 0  0
0 0  0
0 0  0
0 0  0
0 0  0
0 0  0
0 0  0
0 0  0
0 0  0
0 0  0
0 0  0
0 0  0
0 0  0
0 0  0
0 0  0
0 0  0
0 0  0
0 0  0
0 0  0
0 0  0
0 0  0
0 0  0
0 0  0
0 0  0
0 0  0
0 0  0
0 0  0
0 0  0
0 0  0
0 0  0
0 0  0
0 0  0
0 0  0
0 0  0
0 0  0
0 0  0
0 0  0
0 0  0
0 0  0
0 0  0
0 0  0
0 0  0
0 0  0
0 0  0
0 0  0
0 0  0
0 0  0
0 0  0
0 0  0
0 0  0
0 0  0
0 0  0
0 0  0
0 0  0
0 0  0
0 0  0
0 0  0
0 0  0
0 0  0
0 0  0
0 0  0
0 0  0
0 0  0
0 0  0
0 0  0
0 0  0
0 0  0
0 0  0
0 0  0
0 0  0
0 0  0
0 0  0
0 0  0
0 0  0
0 0  0
0 0  0
0 0  0
0 0  0
0 0  0
0 0  0
0 0  0
0 0  0
0 0  0
0 0  0
0 0  0
0 0  0
0 0  0
0 0  0
0 0  0
0 0  0
0 0  0
0 0  0
0 0  0
0 0  0
0 0  0
0 0  0
0 0  0
0 0  0
0 0  0
0 0  0
0 0  0
0 0  0
0 0  0
0 0  0
0 0  0
0 0  0
0 0  0
0 0  0
0 0  0
0 0  0
0 0  0
0 0  0
0 0  0
0 0  0
0 0  0
0 0  0
0 0  0
0 0  0
0 0  0
0 0  0
0 0  0
0 0  0
0 0  0
0 0  0
0 0  0
0 0  0
0 0  0
0 0  0
0 0  0
0 0  0
0 0  0
0 0  0
0 0  0
0 0  0
0 0  0
0 0  0
0 0  0
0 0  0
0 0  0
0 0  0
0 0  0
0 0  0
0 0  0
0 0  0
0 0  0
0 0  0
0 0  0
0 0  0
0 0  0
0 0  0
0 0  0
0 0  0
0 0  0
0 0  0
0 0  0
0 0  0
0 0  0
0 0  0
0 0  0
0 0  0
0 0  0
0 0  0
0 0  0
0 0  0
0 0  0
0 0  0
0 0  0
0 0  0
0 0  0
0 0  0
0 0  0
0 0  0
0 0  0
0 0  0
0 0  0
0 0  0
0 0  0
0 0  0
0 0  0
0 0  0
0 0  0
0 0  0
0 0  0
0 0  0
0 0  0
0 0  0
0 0  0
0 0  0
0 0  0
0 0  0
0 0  0
0 0  0
0 0  0
0 0  0
0 0  0
0 0  0
0 0  0
0 0  0
0 0  0
0 0  0
0 0  0
0 0  0
0 0  0
0 0  0
0 0  0
0 0  0
0 0  0
0 0  0
0 0  0
0 0  0
0 0  0
0 0  0
0 0  0
0 0  0
0 0  0
0 0  0
0 0  0
0 0  0
0 0  0
0 0  0
0 0  0
0 0  0
0 0  0
0 0  0
0 0  0
0 0  0
0 0  0
0 0  0
0 0  0
0 0  0
0 0  0
0 0  0
0 0  0
0 0  0
0 0  0
0 0  0
0 0  0
0 0  0
0 0  0
0 0  0
0 0  0
0 0  0
0 0  0
0 0  0
0 0  0
0 0  0
0 0  0
0 0  0
0 0  0
0 0  0
0 0  0
0 0  0
0 0  0
0 0  0
0 0  0
0 0  0
0 0  0
0 0  0
0 0  0
0 0  0
0 0  0
0 0  0
0 0  0
0 0  0
0 0  0
0 0  0
0 0  0
0 0  0
0 0  0
0 0  0
0 0  0
0 0  0
0 0  0
0 0  0
0 0  0
0 0  0
0 0  0
0 0  0
0 0  0
0 0  0
0 0  0
0 0  0
0 0  0
0 0  0
0 0  0
0 0  0
0 0  0
0 0  0
0 0  0
0 0  0
0 0  0
0 0  0
0 0  0
0 0  0
0 0  0
0 0  0
0 0  0
0 0  0
0 0  0
0 0  0
0 0  0
0 0  0
0 0  0
0 0  0
0 0  0
0 0  0
0 0  0
0 0  0
0 0  0
0 0  0
0 0  0
0 0  0
0 0  0
0 0  0
0 0  0
0 0  0
0 0  0
0 0  0
0 0  0
0 0  0
0 0  0
0 0  0
0 0  0
0 0  0
0 0  0
0 0  0
0 0  0
0 0  0
0 0  0
0 0  0
0 0  0
0 0  0
0 0  0
0 0  0
0 0  0
0 0  0
0 0  0
0 0  0
0 0  0
0 0  0
0 0  0
0 0  0
0 0  0
0 0  0
0 0  0
0 0  0
0 0  0
0 0  0
0 0  0
0 0  0
0 0  0
0 0  0
0 0  0
0 0  0

SCALARS pressure double 1
LOOKUP_TABLE default
0.739877
0.747227
0.752279
0.75599
0.756522
0.755273
0.751275
0.744129
0.731526
0.716153
0.696279
0.673698
0.652064
0.626389
0.596974
0.565042
0.532434
0.507332
0.485697
0.473386
0.461626
0.455612
0.448175
0.441868
0.433632
0.420866
0.402845
0.37673
0.345851
0.325651
0.314214
0.308817
0.30918
0.307531
0.314783
0.297605
0.281603
0.278905
0.371642
0.643817
0
0
0
0
0
0
0
0
0
0
0.558365
0.562654
0.569315
0.570487
0.572104
0.570014
0.565542
0.555697
0.544249
0.525574
0.502892
0.48114
0.456465
0.431261
0.399901
0.360929
0.330074
0.305667
0.291766
0.279139
0.274283
0.266768
0.264089
0.257576
0.251798
0.240851
0.223985
0.193849
0.150444
0.134763
0.128999
0.128923
0.129866
0.139463
0.128957
0.12688
0.0906296
0.00205536
-0.0181359
0
0
0
0
0
0
0
0
0
0
0
0.384396
0.392271
0.393517
0.39737
0.396514
0.394563
0.388514
0.379946
0.365895
0.343796
0.314977
0.290923
0.268716
0.244745
0.208123
0.152172
0.122373
0.1081
0.102854
0.0956442
0.0975192
0.0905165
0.0953202
0.0868219
0.0899722
0.0795163
0.0713482
0.0371657
-0.0538954
-0.0447896
-0.0392431
-0.0318055
-0.0277072
-0.0202703
-0.0144984
0
-0.0186254
0
0
0
0
0
0
0
0
0
0
0
0
0
0.222568
0.224973
0.22989
0.229535
0.231177
0.227401
0.223456
0.215763
0.201105
0.172287
0.125902
0.106768
0.0903463
0.0761122
0.0372293
-0.0755766
-0.0893312
-0.0833495
-0.0686612
-0.0822065
-0.0552446
-0.0831292
-0.0442848
-0.0807985
-0.0416645
-0.0691764
-0.0406106
-0.0474504
0
0
0
0
0
0
0
0
0
0
0
0
0
0
0
0
0
0
0
0
0
0
0.0660719
0.067763
0.0728797
0.0690706
0.0761579
0.0684757
0.0721134
0.0645749
0.057358
0.0228234
-0.0811869
-0.0672871
-0.0781767
-0.0577268
-0.050303
0
0
0
0
0
0
0
0
0
0
0
0
0
0
0
0
0
0
0
0
0
0
0
0
0
0
0
0
0
0
0
0
0
0
0
-0.0798905
-0.0839942
-0.065628
-0.0934247
-0.052384
-0.0903807
-0.0559712
-0.074641
-0.0480263
-0.0451372
0
0
0
0
0
0
0
0
0
0
0
0
0
0
0
0
0
0
0
0
0
0
0
0
0
0
0
0
0
0
0
0
0
0
0
0
0
0
0
0
0
0
0
0
0
0
0
0
0
0
0
0
0
0
0
0
0
0
0
0
0
0
0
0
0
0
0
0
0
0
0
0
0
0
0
0
0
0
0
0
0
0
0
0
0
0
0
0
0
0
0
0
0
0
0
0
0
0
0
0
0
0
0
0
0
0
0
0
0
0
0
0
0
0
0
0
0
0
0
0
0
0
0
0
0
0
0
0
0
0
0
0
0
0
0
0
0
0
0
0
0
0
0
0
0
0
0
0
0
0
0
0
0
0
0
0
0
0
0
0
0
0
0
0
0
0
0
0
0
0
0
0
0
0
0
0
0
0
0
0
0
0
0
0
0
0
0
0
0
0
0
0
0
0
0
0
0
0
0
0
0
0
0
0
0
0
0
0
0
0
0
0
0
0
0
0
0
0
0
0
0
0
0
0
0
0
0
0
0
0
0
0
0
0
0
0
0
0
0
0
0
0
0
0
0
0
0
0
0
0
0
0
0
0
0
0
0
0
0
0
0
0
0
0
0
0
0
0
0
0
0
0
0
0
0
0
0
0
0
0
0
0
0
0
0
0
0
0
0
0
0
0
0
0
0
0
0
0
0
0
0
0
0
0
0
0
0
0
0
0
0
0
0
0
0
0
0
0
0
0
0
0
0
0
0
0
0
0
0
0
0
0
0
0
0
0
0
0
0
0
0
0
0
0
0
0
0
0
0
0
0
0
0
0
0
0
0
0
0
0
0
0
0
0
0
0
0
0
0
0
0
0
0
0
0
0
0
0
0
0
0
0
0
0
0
0
0
0
0
0
0
0
0
0
0
0
0
0
0
0
0
0
0
0
0
0
0
0
0
0
0
0
0
0
0
0
0
0
0
0
0
0
0
0
0
0
0
0
0
0
0
0
0
0
0
0
0
0
0
0
0
0
0
0
0
0
0
0
0
0
0
0
0
0
0
0
0
0
0
0
0
0
0
0
0
0
0
0
0
0
0
0
0
0
0
0
0
0
0
0
0
0
0
0
0
0
0
0
0
0
0
0
0
0
0
0
0
0
0
0
0
0
0
0
0
0
0
0
0
0
0
0
0
0
0
0
0
0
0
0
0
0
0
0
0
0
0
0
0
0
0
0
0
0
0
0
0
0
0
0
0
0
0
0
0
0
0
0
0
0
0
0
0
0
0
0
0
0
0
0
0
0
0
0
0
0
0
0
0
0
0
0
0
0
0
0
0
0
0
0
0
0
0
0
0
0
0
0
0
0
0
0
0
0
0
0
0
0
0
0
0
0
0
0
0
0
0
0
0
0
0
0
0
0
0
0
0
0
0
0
0
0
0
0
0
0
0
0
0
0
0
0
0
0
0
0
0
0
0
0
0
0
0
0
0
0
0
0
0
0
0
0
0
0
0
0
0
0
0
0
0
0
0
0
0
0
0
0
0
0
0
0
0
0
0
0
0
0
0
0
0
0
0
0
0
0
0
0
0
0
0
0
0
0
0
0
0
0
0
0
0
0
0
0
0
0
0
0
0
0
0
0
0
0
0
0
0
0
0
0
0
0
0
0
0
0
0
0
0
0
0
0
0
0
0
0
0
0
0
0
SCALARS rhs double 1
LOOKUP_TABLE default
-4.42507
-4.65746
-4.70266
-4.73466
-4.75358
-4.77772
-4.80521
-4.84029
-4.87943
-4.92389
-4.9511
-4.95353
-4.97584
-5.0284
-5.09185
-5.09853
-5.00127
-4.87811
-4.78698
-4.73586
-4.70534
-4.68716
-4.6731
-4.66363
-4.65928
-4.66455
-4.67996
-4.68892
-4.623
-4.5591
-4.517
-4.50135
-4.51016
-4.53676
-4.5528
-4.50228
-4.43621
-4.54521
-5.26014
0.842173
0
0
0
0
0
0
0
0
0
0
0.391139
0.214252
0.183658
0.175222
0.178987
0.166076
0.162051
0.149765
0.117612
0.0878811
0.0866855
0.113957
0.117726
0.0687166
0.00110739
0.0186453
0.134935
0.249527
0.304548
0.324449
0.333501
0.340415
0.351528
0.355429
0.359543
0.347389
0.321569
0.323571
0.473363
0.526881
0.546797
0.541535
0.522759
0.502135
0.505458
0.544549
0.738982
0.313975
1.15805
0
0
0
0
0
0
0
0
0
0
0
0.318375
0.176978
0.151013
0.160451
0.161758
0.165472
0.175172
0.16854
0.130838
0.0890438
0.129814
0.184995
0.199265
0.13525
0.0594235
0.192679
0.296887
0.380425
0.399057
0.365956
0.393798
0.358171
0.411544
0.371898
0.420462
0.377435
0.372511
0.379631
5.6909
5.87641
4.83291
3.43212
1.50375
-0.575211
-0.225546
0.856587
0.842173
0
0
0
0
0
0
0
0
0
0
0
0
0
0.270137
0.159466
0.141462
0.166123
0.170358
0.195054
0.209645
0.203133
0.158657
0.119136
0.257908
0.322131
0.307431
0.270561
0.247585
1.16175
2.87391
5.7352
26.5428
20.159
15.9035
11.1216
8.06325
5.27534
5.6909
5.87641
3.43212
-0.212828
0
0
0
0
0
0
0
0
0
0
0
0
0
0
0
0
0
0
0
0
0
0
0.305349
0.224386
0.24283
0.229064
0.301137
0.269512
0.330636
0.301359
0.292564
0.310574
0.567022
0.341043
3.18653
3.47711
42.6887
32.8547
19.5017
9.00999
0
0
0
0
0
0
0
0
0
0
0
0
0
0
0
0
0
0
0
0
0
0
0
0
0
0
0
0
0
0
0
0
1.02974
0.978974
0.930118
0.370739
-0.309275
-0.84467
-1.02397
0.401626
2.63141
4.04255
4.68643
4.81997
12.4974
35.3186
0
0
0
0
0
0
0
0
0
0
0
0
0
0
0
0
0
0
0
0
0
0
0
0
0
0
0
0
0
0
0
0
0
0
0
0
1.47614
1.54411
2.09799
2.47435
3.77929
5.12603
6.33856
5.10183
2.09579
1.47098
2.53607
14.3387
26.3021
0
0
0
0
0
0
0
0
0
0
0
0
0
0
0
0
0
0
0
0
0
0
0
0
0
0
0
0
0
0
0
0
0
0
0
0
0
2.59543
2.54951
1.62039
1.22694
0.49828
0.777197
0.916648
3.70181
7.89906
8.9678
11.6117
27.2717
0
0
0
0
0
0
0
0
0
0
0
0
0
0
0
0
0
0
0
0
0
0
0
0
0
0
0
0
0
0
0
0
0
0
0
0
0
0
2.45787
2.59584
4.01582
4.53242
6.43299
7.47839
9.23983
7.89527
5.98596
8.49533
41.2731
0
0
0
0
0
0
0
0
0
0
0
0
0
0
0
0
0
0
0
0
0
0
0
0
0
0
0
0
0
0
0
0
0
0
0
0
0
0
0
9.36633
9.33066
8.04142
9.25902
7.69325
7.78758
9.09454
10.208
11.1703
21.7759
3.2041
0
0
0
0
0
0
0
0
0
0
0
0
0
0
0
0
0
0
0
0
0
0
0
0
0
0
0
0
0
0
0
0
0
0
0
0
0
0
0
7.92952
10.0992
10.1145
8.86149
11.2589
12.4355
10.8064
8.57914
8.60392
43.2779
0
0
0
0
0
0
0
0
0
0
0
0
0
0
0
0
0
0
0
0
0
0
0
0
0
0
0
0
0
0
0
0
0
0
0
0
0
0
0
0
13.2058
10.8439
11.0393
13.0106
10.7272
10.2862
9.48307
9.57063
8.67562
33.2233
0
0
0
0
0
0
0
0
0
0
0
0
0
0
0
0
0
0
0
0
0
0
0
0
0
0
0
0
0
0
0
0
0
0
0
0
0
0
0
0
8.71388
9.82855
9.83715
7.65861
8.9401
7.02241
6.34758
6.44313
5.90605
26.1906
0
0
0
0
0
0
0
0
0
0
0
0
0
0
0
0
0
0
0
0
0
0
0
0
0
0
0
0
0
0
0
0
0
0
0
0
0
0
0
0
7.061
5.55892
5.71513
6.83869
5.56628
5.6724
5.42452
5.43401
4.26976
17.1298
0
0
0
0
0
0
0
0
0
0
0
0
0
0
0
0
0
0
0
0
0
0
0
0
0
0
0
0
0
0
0
0
0
0
0
0
0
0
0
0
6.55202
6.55536
6.55982
5.31204
5.40986
6.30896
5.08555
5.09432
5.2091
10.3371
0
0
0
0
0
0
0
0
0
0
0
0
0
0
0
0
0
0
0
0
0
0
0
0
0
0
0
0
0
0
0
0
0
0
0
0
0
0
0
0
5.52783
5.53996
5.54196
5.54121
5.54439
4.52522
5.16545
5.22779
16.4546
0
0
0
0
0
0
0
0
0
0
0
0
0
0
0
0
0
0
0
0
0
0
0
0
0
0
0
0
0
0
0
0
0
0
0
0
0
0
0
0
0
3.60674
3.66202
3.98033
3.98143
3.98244
3.98396
3.23505
3.31189
11.5415
0
0
0
0
0
0
0
0
0
0
0
0
0
0
0
0
0
0
0
0
0
0
0
0
0
0
0
0
0
0
0
0
0
0
0
0
0
0
0
0
0
6.01719
6.36025
5.75447
5.75462
5.75506
5.75536
5.75588
5.76119
8.30564
0
0
0
0
0
0
0
0
0
0
0
0
0
0
0
0
0
0
0
0
0
0
0
0
0
0
0
0
0
0
0
0
0
0
0
0
0
0
0
0
0
3.29611
2.74112
2.74112
2.74112
2.74112
2.74112
2.74112
2.74112
2.74112
0
0
0
0
0
0
0
0
0
0
0
0
0
0
0
0
0
0
0
0
0
0
0
0
0
0
0
0
0
0
0
0
0
0
0
0
0
0
0
0
0
0
0
0
0
0
0
0
0
0
0
0
0
0
0
0
0
0
0
0
0
0
0
0
0
0
0
0
0
0
0
0
0
0
0
0
0
0
0
0
0
0
0
0
0
0
0
0
0
0
0
