# vtk DataFile Version 4.0
Nusif Fluid VTK output
ASCII
DATASET STRUCTURED_POINTS
DIMENSIONS 40 30 1
ORIGIN 0 0 0 
SPACING 0.2 0.2 1
POINT_DATA 1200 

VECTORS velocity double
-0.00529233 0.00453333  0
-0.0156837 0.00440422  0
-0.025617 0.00414129  0
-0.0348883 0.00374579  0
-0.0432418 0.00322676  0
-0.0504493 0.00260295  0
-0.0563283 0.00190119  0
-0.0607539 0.00115243  0
-0.063663 0.000387197  0
-0.0650489 -0.000368167  0
-0.0649517 -0.00109371  0
-0.0634436 -0.00177691  0
-0.0606155 -0.00241178  0
-0.056566 -0.00299659  0
-0.0513958 -0.00353085  0
-0.0452087 -0.00401226  0
-0.0381168 -0.00443434  0
-0.0302504 -0.00478574  0
-0.0217656 -0.00505195  0
-0.0128467 -0.00521916  0
-0.00369992 -0.00527938  0
0.00546253 -0.00523445  0
0.014445 -0.00509925  0
0.0230886 -0.00489541  0
0.0312769 -0.00464413  0
0.0389304 -0.0043608  0
0.0459912 -0.0040517  0
0.052404 -0.00371314  0
0.0580966 -0.00333202  0
0.0629624 -0.00288678  0
0.0668439 -0.00234833  0
0.0695192 -0.00168116  0
0.0706916 -0.000845995  0
0.0699884 0.000193943  0
0.0669789 0.00145985  0
0.0612289 0.00293391  0
0.0524059 0.00453263  0
0.0404265 0.0060899  0
0.0256124 0.0073673  0
0.00878327 0.00810474  0
-0.00543443 0.0138078  0
-0.0161111 0.0134179  0
-0.0263255 0.0126224  0
-0.0358597 0.0114216  0
-0.0444417 0.00984172  0
-0.0518276 0.00794058  0
-0.0578245 0.00580224  0
-0.062305 0.00352367  0
-0.0652106 0.00119988  0
-0.0665452 -0.00108802  0
-0.0663616 -0.00327959  0
-0.0647453 -0.00533792  0
-0.0617975 -0.0072468  0
-0.0576235 -0.00900316  0
-0.0523265 -0.0106076  0
-0.0460089 -0.0120548  0
-0.0387801 -0.0133257  0
-0.0307674 -0.0143855  0
-0.0221268 -0.0151887  0
-0.0130471 -0.0156915  0
-0.00374269 -0.0158681  0
0.00556347 -0.0157238  0
0.0146677 -0.015306  0
0.0234091 -0.014683  0
0.0316759 -0.0139213  0
0.0393971 -0.0130683  0
0.0465246 -0.0121428  0
0.0530109 -0.0111319  0
0.0587875 -0.00999393  0
0.0637461 -0.00866133  0
0.0677219 -0.00704399  0
0.0704806 -0.00503305  0
0.0717094 -0.00250951  0
0.0710188 0.000636289  0
0.0679658 0.00446461  0
0.0621122 0.0089166  0
0.0531327 0.0137361  0
0.0409604 0.0184214  0
0.0259354 0.0222581  0
0.00889095 0.0244705  0
-0.00573235 0.023592  0
-0.0170059 0.0229372  0
-0.027807 0.0215912  0
-0.0378887 0.0195427  0
-0.0469429 0.0168319  0
-0.0546919 0.0135618  0
-0.0609215 0.0098853  0
-0.0655 0.00597854  0
-0.0683811 0.00201157  0
-0.0695917 -0.00187358  0
-0.0692131 -0.00557427  0
-0.0673584 -0.00903169  0
-0.0641511 -0.0122247  0
-0.0597111 -0.0151552  0
-0.0541477 -0.0178313  0
-0.0475622 -0.0202491  0
-0.0400584 -0.0223785  0
-0.0317589 -0.0241593  0
-0.0228192 -0.0255093  0
-0.0134353 -0.0263485  0
-0.00383608 -0.0266286  0
0.00573733 -0.0263569  0
0.0150677 -0.0256215  0
0.0239925 -0.0245477  0
0.0324099 -0.023255  0
0.040266 -0.0218264  0
0.0475309 -0.0202918  0
0.0541714 -0.0186247  0
0.0601253 -0.0167471  0
0.06528 -0.0145372  0
0.0694552 -0.0118354  0
0.0723913 -0.00845285  0
0.0737437 -0.00418764  0
0.0730911 0.00114052  0
0.0699657 0.00762159  0
0.0639209 0.0151406  0
0.0546415 0.0232534  0
0.0420867 0.0311136  0
0.0266277 0.0375322  0
0.00912415 0.0412268  0
-0.00621716 0.0341675  0
-0.0184614 0.0332441  0
-0.0302149 0.031317  0
-0.0411797 0.0283428  0
-0.0509845 0.0243714  0
-0.0592948 0.0195635  0
-0.0658635 0.0141648  0
-0.0705565 0.00845479  0
-0.0733522 0.00269723  0
-0.0743197 -0.00289508  0
-0.0735884 -0.00817556  0
-0.0713172 -0.0130686  0
-0.0676665 -0.0175573  0
-0.0627805 -0.0216594  0
-0.0567813 -0.0254002  0
-0.049772 -0.0287849  0
-0.0418517 -0.0317762  0
-0.0331368 -0.0342853  0
-0.0237819 -0.0361869  0
-0.0139896 -0.037356  0
-0.0040034 -0.0377153  0
0.00591712 -0.037273  0
0.0155425 -0.0361702  0
0.0247132 -0.0346037  0
0.0333441 -0.0327567  0
0.0414053 -0.0307517  0
0.048891 -0.028627  0
0.0557851 -0.0263343  0
0.0620308 -0.0237477  0
0.0675057 -0.020677  0
0.0720043 -0.0168806  0
0.0752282 -0.0120793  0
0.0767858 -0.00598329  0
0.0762083 0.0016539  0
0.0729923 0.0109371  0
0.0666767 0.0216728  0
0.0569585 0.0332059  0
0.0438304 0.0443311  0
0.0277074 0.0533837  0
0.00948938 0.0585839  0
-0.00695177 0.0459723  0
-0.0206649 0.0447741  0
-0.0338517 0.0422113  0
-0.0461283 0.0381751  0
-0.0570203 0.0327223  0
-0.0661075 0.0260978  0
-0.0731001 0.0186805  0
-0.0778721 0.010894  0
-0.0804505 0.00312289  0
-0.0809751 -0.00433702  0
-0.0796516 -0.0112959  0
-0.0767063 -0.0176714  0
-0.0723531 -0.0234645  0
-0.066775 -0.0287217  0
-0.0601182 -0.0334988  0
-0.0524966 -0.0378216  0
-0.0440096 -0.041651  0
-0.0347693 -0.0448696  0
-0.0249273 -0.0473034  0
-0.0146864 -0.0487763  0
-0.0042934 -0.0491777  0
0.00598682 -0.048515  0
0.0159251 -0.0469956  0
0.0253755 -0.0449033  0
0.0342774 -0.042494  0
0.0426283 -0.0399309  0
0.0504457 -0.0372555  0
0.0577272 -0.0343864  0
0.0644141 -0.0311335  0
0.0703635 -0.0272212  0
0.075332 -0.0223096  0
0.0789692 -0.0160178  0
0.0808227 -0.00796289  0
0.0803645 0.00216194  0
0.0770447 0.0144574  0
0.0703826 0.0286223  0
0.0600888 0.0437604  0
0.0461977 0.0582877  0
0.0291794 0.0700604  0
0.00998863 0.076808  0
-0.00805425 0.0596249  0
-0.0239638 0.0581356  0
-0.0392682 0.0548314  0
-0.0534381 0.0494928  0
-0.0658404 0.0421915  0
-0.0759366 0.0333056  0
-0.0833926 0.023416  0
-0.0881188 0.0131524  0
-0.0902351 0.00305586  0
-0.0899975 -0.00648548  0
-0.0877229 -0.015247  0
-0.0837301 -0.0231591  0
-0.0783047 -0.0302556  0
-0.0716875 -0.0366255  0
-0.0640692 -0.0423692  0
-0.0555931 -0.0475475  0
-0.0463713 -0.0521323  0
-0.0365154 -0.0559827  0
-0.0261677 -0.0588781  0
-0.0155152 -0.0605931  0
-0.00478045 -0.0609866  0
0.00579791 -0.0600627  0
0.0160167 -0.058103  0
0.0257608 -0.0554887  0
0.0350021 -0.0525502  0
0.0437627 -0.0494849  0
0.0520735 -0.0463286  0
0.0599318 -0.0429525  0
0.0672612 -0.0390835  0
0.0738802 -0.0343398  0
0.0794886 -0.0282685  0
0.0836701 -0.0203787  0
0.0859048 -0.0101918  0
0.0855983 0.00265371  0
0.0821497 0.0182317  0
0.0750575 0.0360998  0
0.0640473 0.0550843  0
0.0492007 0.0731986  0
0.0310522 0.0878133  0
0.010625 0.0961702  0
-0.0097308 0.076068  0
-0.0289579 0.0742353  0
-0.0473971 0.0699719  0
-0.0642764 0.0628993  0
-0.0787311 0.053141  0
-0.0900742 0.0412954  0
-0.097948 0.028257  0
-0.102362 0.0149539  0
-0.103611 0.00212223  0
-0.102133 -0.00976399  0
-0.0983959 -0.0204754  0
-0.0928323 -0.0299818  0
-0.0858172 -0.0383674  0
-0.0776734 -0.0457681  0
-0.0686731 -0.0523382  0
-0.0590221 -0.0581982  0
-0.0488608 -0.0633572  0
-0.0383004 -0.0676664  0
-0.0274622 -0.0708723  0
-0.0164874 -0.0727183  0
-0.00552892 -0.0730466  0
0.00524816 -0.0718503  0
0.0157013 -0.0694796  0
0.0257684 -0.0664158  0
0.0354629 -0.0630515  0
0.0448224 -0.0595966  0
0.053869 -0.0560675  0
0.0625779 -0.0522743  0
0.0708302 -0.0478373  0
0.0783727 -0.042242  0
0.0848158 -0.0349128  0
0.0896617 -0.0252572  0
0.0923237 -0.0127059  0
0.0921509 0.0031507  0
0.0884992 0.0223381  0
0.0808491 0.0442386  0
0.0689456 0.0673618  0
0.0529214 0.0892943  0
0.0333786 0.106911  0
0.011417 0.116963  0
-0.0123096 0.0967788  0
-0.0365908 0.0944547  0
-0.0596801 0.0887845  0
-0.0804177 0.0792082  0
-0.0976194 0.065994  0
-0.110433 0.0501057  0
-0.118537 0.0329317  0
-0.12217 0.0158353  0
-0.121941 -0.000231035  0
-0.118559 -0.0147606  0
-0.112673 -0.0275908  0
-0.104835 -0.0387566  0
-0.0955218 -0.0484083  0
-0.0851759 -0.056704  0
-0.0742135 -0.0638517  0
-0.0629557 -0.0700798  0
-0.0515814 -0.0754974  0
-0.0401816 -0.0799725  0
-0.0288315 -0.0832403  0
-0.0175916 -0.085051  0
-0.00648563 -0.0852644  0
0.00444513 -0.0838264  0
0.0151471 -0.0811447  0
0.0256386 -0.0777956  0
0.0359925 -0.0742066  0
0.046249 -0.0705443  0
0.0563927 -0.0667974  0
0.066353 -0.0627012  0
0.0759375 -0.0577352  0
0.0847659 -0.0512035  0
0.0922916 -0.0424094  0
0.097901 -0.0307057  0
0.100958 -0.0154671  0
0.100795 0.00375722  0
0.0967502 0.0269368  0
0.0882986 0.0532499  0
0.0752114 0.0808492  0
0.0576744 0.106876  0
0.0363544 0.1277  0
0.012432 0.139566  0
-0.0162391 0.124011  0
-0.0481339 0.120837  0
-0.0780339 0.112902  0
-0.104207 0.0995122  0
-0.125051 0.0812482  0
-0.139532 0.0596591  0
-0.147477 0.0369417  0
-0.149601 0.0150971  0
-0.147052 -0.00475533  0
-0.140901 -0.0222524  0
-0.131957 -0.0374119  0
-0.1209 -0.0503127  0
-0.108323 -0.0612236  0
-0.0948285 -0.0702097  0
-0.0811052 -0.077512  0
-0.0676745 -0.083588  0
-0.054724 -0.0887938  0
-0.0422438 -0.0930361  0
-0.0302239 -0.0960264  0
-0.0186315 -0.0975769  0
-0.00729913 -0.0976568  0
0.00388727 -0.0960311  0
0.014972 -0.0932066  0
0.0260992 -0.0898328  0
0.0374369 -0.0863415  0
0.0490159 -0.0827257  0
0.0607572 -0.078982  0
0.0725457 -0.0747466  0
0.0841002 -0.0693107  0
0.0948212 -0.0616598  0
0.103852 -0.0509931  0
0.110383 -0.0367461  0
0.113748 -0.0183338  0
0.113336 0.00471486  0
0.108522 0.0323522  0
0.0987886 0.0635329  0
0.0839602 0.0959952  0
0.0642934 0.126447  0
0.040506 0.15075  0
0.0138518 0.164607  0
-0.0219584 0.160904  0
-0.0648125 0.156147  0
-0.10431 0.144507  0
-0.13799 0.125277  0
-0.163688 0.0995438  0
-0.180063 0.0697389  0
-0.187227 0.0394923  0
-0.186797 0.0117621  0
-0.180823 -0.0124214  0
-0.170727 -0.03331  0
-0.157397 -0.0511046  0
-0.141796 -0.0657534  0
-0.124632 -0.0779994  0
-0.106668 -0.0873653  0
-0.0891375 -0.0940844  0
-0.0729019 -0.0991555  0
-0.0580364 -0.103516  0
-0.0441767 -0.107127  0
-0.031154 -0.109451  0
-0.0189552 -0.110417  0
-0.00716532 -0.110413  0
0.00448162 -0.108582  0
0.0161243 -0.105857  0
0.0281419 -0.102802  0
0.0408384 -0.099881  0
0.0541821 -0.0965833  0
0.0680546 -0.093213  0
0.0824021 -0.0891267  0
0.0969104 -0.0834689  0
0.110646 -0.0744343  0
0.122116 -0.0611969  0
0.13012 -0.0435552  0
0.133916 -0.0211647  0
0.13301 0.00638485  0
0.12687 0.0391563  0
0.115026 0.0758255  0
0.0974571 0.113619  0
0.0745311 0.148935  0
0.0469743 0.177124  0
0.0160806 0.193299  0
-0.0294597 0.211032  0
-0.086605 0.203489  0
-0.138672 0.186252  0
-0.182462 0.158526  0
-0.214881 0.121938  0
-0.233647 0.0800134  0
-0.239067 0.0393292  0
-0.234482 0.00443853  0
-0.223407 -0.0246191  0
-0.207476 -0.0496095  0
-0.187592 -0.0704883  0
-0.165768 -0.0862639  0
-0.142595 -0.100294  0
-0.118551 -0.109546  0
-0.0960821 -0.11437  0
-0.0766369 -0.117017  0
-0.0600275 -0.119596  0
-0.0448475 -0.122554  0
-0.030441 -0.123921  0
-0.0173723 -0.123682  0
-0.00493628 -0.123841  0
0.00718599 -0.121391  0
0.0192962 -0.119269  0
0.0323593 -0.116938  0
0.0466586 -0.115208  0
0.0617829 -0.112192  0
0.0778372 -0.109999  0
0.0951903 -0.10651  0
0.11379 -0.101663  0
0.132396 -0.0910506  0
0.148245 -0.0743707  0
0.159462 -0.0520749  0
0.164848 -0.0243004  0
0.16384 0.00896071  0
0.155968 0.0481177  0
0.140917 0.0912838  0
0.119185 0.134986  0
0.0913197 0.175883  0
0.0578335 0.208743  0
0.019895 0.228036  0
-0.0372937 0.276508  0
-0.109647 0.265  0
-0.176306 0.240998  0
-0.233497 0.202293  0
-0.276116 0.150742  0
-0.298417 0.0898097  0
-0.299884 0.0339539  0
-0.28794 -0.009181  0
-0.268991 -0.0434894  0
-0.24426 -0.0738647  0
-0.214545 -0.0982955  0
-0.18598 -0.111308  0
-0.157277 -0.129586  0
-0.12588 -0.138156  0
-0.0975636 -0.139006  0
-0.0749149 -0.136936  0
-0.0581531 -0.135509  0
-0.0430783 -0.139357  0
-0.0269496 -0.140115  0
-0.0128819 -0.137086  0
0.000271845 -0.138488  0
0.0124109 -0.133467  0
0.0242979 -0.133652  0
0.0386484 -0.13243  0
0.0546425 -0.132472  0
0.0704156 -0.128288  0
0.0871861 -0.12919  0
0.106283 -0.126231  0
0.128927 -0.12565  0
0.154223 -0.113429  0
0.177156 -0.0932386  0
0.195435 -0.065169  0
0.206016 -0.0296418  0
0.207244 0.0116137  0
0.198339 0.0597726  0
0.179284 0.111266  0
0.15222 0.161329  0
0.117977 0.209178  0
0.0760064 0.248434  0
0.0265615 0.273257  0
-0.0409089 0.353446  0
-0.122031 0.339041  0
-0.202429 0.311551  0
-0.277436 0.261475  0
-0.337209 0.191492  0
-0.364538 0.0962281  0
-0.355936 0.0179415  0
-0.331159 -0.0323492  0
-0.30168 -0.0712088  0
-0.265563 -0.109452  0
-0.222754 -0.13769  0
-0.192459 -0.13323  0
-0.165544 -0.165737  0
-0.127082 -0.174318  0
-0.0917823 -0.168914  0
-0.0650919 -0.158822  0
-0.0513717 -0.146561  0
-0.040219 -0.156988  0
-0.0218847 -0.159402  0
-0.00649961 -0.149707  0
0.00779268 -0.155768  0
0.0195826 -0.142571  0
0.0303594 -0.149667  0
0.0468784 -0.14974  0
0.0646809 -0.151414  0
0.0793607 -0.142255  0
0.0940163 -0.149106  0
0.110221 -0.144072  0
0.133319 -0.156007  0
0.163573 -0.141079  0
0.193614 -0.121021  0
0.224079 -0.0885907  0
0.246414 -0.0416003  0
0.25495 0.0113444  0
0.248156 0.0732768  0
0.225732 0.136777  0
0.193814 0.192334  0
0.153919 0.249845  0
0.102628 0.298562  0
0.037075 0.335661  0
-0.0326813 0.425784  0
-0.101867 0.414528  0
-0.188073 0.400211  0
-0.283744 0.341036  0
-0.369234 0.254741  0
-0.40166 0.090281  0
-0.37515 -0.0136758  0
-0.338818 -0.064295  0
-0.303635 -0.106378  0
-0.260738 -0.155751  0
-0.209253 -0.188138  0
-0.184706 -0.140075  0
-0.170584 -0.201764  0
-0.131373 -0.217188  0
-0.0891913 -0.20475  0
-0.0578594 -0.182234  0
-0.0448368 -0.151117  0
-0.037344 -0.172303  0
-0.0208935 -0.180098  0
-0.00299677 -0.163519  0
0.0125317 -0.173004  0
0.0256214 -0.151442  0
0.038445 -0.165623  0
0.0553349 -0.16842  0
0.0726587 -0.169088  0
0.0883344 -0.156163  0
0.101328 -0.164073  0
0.112783 -0.157991  0
0.131567 -0.185197  0
0.155902 -0.167704  0
0.18459 -0.154352  0
0.226094 -0.129073  0
0.264576 -0.0643964  0
0.283012 0.00470955  0
0.283575 0.0836837  0
0.261964 0.167946  0
0.228739 0.223847  0
0.185748 0.298755  0
0.124588 0.359641  0
0.0453781 0.416883  0
-0.0125391 0.469765  0
-0.0379055 0.462632  0
-0.111103 0.509058  0
-0.208881 0.423188  0
-0.2833 0.330663  0
-0.322347 0.0846076  0
-0.319332 -0.0387521  0
-0.303621 -0.0924866  0
-0.279153 -0.139063  0
-0.255903 -0.19044  0
-0.247882 -0.21418  0
-0.249304 -0.138383  0
-0.19084 -0.178287  0
-0.128395 -0.119986  0
-0.112094 -0.112074  0
-0.0938306 -0.0970842  0
-0.052567 -0.0761026  0
-0.0183748 -0.089354  0
-0.0245623 -0.0950718  0
-0.00772815 -0.0856852  0
0.00527363 -0.0903405  0
0.0217981 -0.0784272  0
0.0489671 -0.0865171  0
0.057284 -0.0889494  0
0.0657064 -0.0884663  0
0.0844864 -0.0819971  0
0.101473 -0.0846183  0
0.12701 -0.0821415  0
0.139199 -0.0988445  0
0.142656 -0.089773  0
0.199469 -0.162772  0
0.239542 -0.154346  0
0.249555 -0.088849  0
0.258978 7.50193e-05  0
0.270986 0.0739057  0
0.262117 0.206361  0
0.238989 0.239941  0
0.212522 0.349659  0
0.154162 0.425797  0
0.0603047 0.521337  0
-0.00513201 0.486819  0
-0.013287 0.47787  0
-0.0282287 0.580734  0
-0.0401474 0.459984  0
-0.0397137 0.413829  0
-0.116609 0.0433211  0
-0.224437 -0.0219009  0
-0.249087 -0.0515736  0
-0.230785 -0.0764353  0
-0.225959 -0.0999415  0
-0.278632 -0.106379  0
-0.286492 -0.0691914  0
-0.124652 -0.0691914  0
0 0  0
0 0  0
0 0  0
0 0  0
0 0  0
0 0  0
0 0  0
0 0  0
0 0  0
0 0  0
0 0  0
0 0  0
0 0  0
0 0  0
0 0  0
0 0  0
0 0  0
0.119771 -0.0771728  0
0.2118 -0.0771728  0
0.17205 -0.0494314  0
0.163911 0.0241309  0
0.17433 0.0541446  0
0.161934 0.234407  0
0.14299 0.240987  0
0.0882274 0.428614  0
0.0279253 0.464276  0
0.0111929 0.59222  0
0.000396859 0.245975  0
-0.063638 0.240446  0
-0.0177743 0.296326  0
0.0261868 0.229992  0
-0.0200737 0.229992  0
0 0  0
0 0  0
0 0  0
0 0  0
0 0  0
0 0  0
0 0  0
0 0  0
0 0  0
0 0  0
0 0  0
0 0  0
0 0  0
0 0  0
0 0  0
0 0  0
0 0  0
0 0  0
0 0  0
0 0  0
0 0  0
0 0  0
0 0  0
0 0  0
0 0  0
0 0  0
0 0  0
0 0  0
0.0838906 0.023798  0
0.17433 0.023798  0
0.161934 0.120493  0
0.0217953 0.120493  0
-0.0261867 0.241688  0
-0.0320932 0.234908  0
-0.0556062 0.301707  0
0 0  0
0 0  0
0 0  0
0 0  0
0 0  0
0 0  0
0 0  0
0 0  0
0 0  0
0 0  0
0 0  0
0 0  0
0 0  0
0 0  0
0 0  0
0 0  0
0 0  0
0 0  0
0 0  0
0 0  0
0 0  0
0 0  0
0 0  0
0 0  0
0 0  0
0 0  0
0 0  0
0 0  0
0 0  0
0 0  0
0 0  0
0 0  0
0 0  0
0 0  0
0 0  0
0 0  0
0 0  0
0 0  0
0 0  0
0 0  0
0 0  0
0 0  0
0 0  0
0 0  0
0 0  0
0 0  0
0 0  0
0 0  0
0 0  0
0 0  0
0 0  0
0 0  0
0 0  0
0 0  0
0 0  0
0 0  0
0 0  0
0 0  0
0 0  0
0 0  0
0 0  0
0 0  0
0 0  0
0 0  0
0 0  0
0 0  0
0 0  0
0 0  0
0 0  0
0 0  0
0 0  0
0 0  0
0 0  0
0 0  0
0 0  0
0 0  0
0 0  0
0 0  0
0 0  0
0 0  0
0 0  0
0 0  0
0 0  0
0 0  0
0 0  0
0 0  0
0 0  0
0 0  0
0 0  0
0 0  0
0 0  0
0 0  0
0 0  0
0 0  0
0 0  0
0 0  0
0 0  0
0 0  0
0 0  0
0 0  0
0 0  0
0 0  0
0 0  0
0 0  0
0 0  0
0 0  0
0 0  0
0 0  0
0 0  0
0 0  0
0 0  0
0 0  0
0 0  0
0 0  0
0 0  0
0 0  0
0 0  0
0 0  0
0 0  0
0 0  0
0 0  0
0 0  0
0 0  0
0 0  0
0 0  0
0 0  0
0 0  0
0 0  0
0 0  0
0 0  0
0 0  0
0 0  0
0 0  0
0 0  0
0 0  0
0 0  0
0 0  0
0 0  0
0 0  0
0 0  0
0 0  0
0 0  0
0 0  0
0 0  0
0 0  0
0 0  0
0 0  0
0 0  0
0 0  0
0 0  0
0 0  0
0 0  0
0 0  0
0 0  0
0 0  0
0 0  0
0 0  0
0 0  0
0 0  0
0 0  0
0 0  0
0 0  0
0 0  0
0 0  0
0 0  0
0 0  0
0 0  0
0 0  0
0 0  0
0 0  0
0 0  0
0 0  0
0 0  0
0 0  0
0 0  0
0 0  0
0 0  0
0 0  0
0 0  0
0 0  0
0 0  0
0 0  0
0 0  0
0 0  0
0 0  0
0 0  0
0 0  0
0 0  0
0 0  0
0 0  0
0 0  0
0 0  0
0 0  0
0 0  0
0 0  0
0 0  0
0 0  0
0 0  0
0 0  0
0 0  0
0 0  0
0 0  0
0 0  0
0 0  0
0 0  0
0 0  0
0 0  0
0 0  0
0 0  0
0 0  0
0 0  0
0 0  0
0 0  0
0 0  0
0 0  0
0 0  0
0 0  0
0 0  0
0 0  0
0 0  0
0 0  0
0 0  0
0 0  0
0 0  0
0 0  0
0 0  0
0 0  0
0 0  0
0 0  0
0 0  0
0 0  0
0 0  0
0 0  0
0 0  0
0 0  0
0 0  0
0 0  0
0 0  0
0 0  0
0 0  0
0 0  0
0 0  0
0 0  0
0 0  0
0 0  0
0 0  0
0 0  0
0 0  0
0 0  0
0 0  0
0 0  0
0 0  0
0 0  0
0 0  0
0 0  0
0 0  0
0 0  0
0 0  0
0 0  0
0 0  0
0 0  0
0 0  0
0 0  0
0 0  0
0 0  0
0 0  0
0 0  0
0 0  0
0 0  0
0 0  0
0 0  0
0 0  0
0 0  0
0 0  0
0 0  0
0 0  0
0 0  0
0 0  0
0 0  0
0 0  0
0 0  0
0 0  0
0 0  0
0 0  0
0 0  0
0 0  0
0 0  0
0 0  0
0 0  0
0 0  0
0 0  0
0 0  0
0 0  0
0 0  0
0 0  0
0 0  0
0 0  0
0 0  0
0 0  0
0 0  0
0 0  0
0 0  0
0 0  0
0 0  0
0 0  0
0 0  0
0 0  0
0 0  0
0 0  0
0 0  0
0 0  0
0 0  0
0 0  0
0 0  0
0 0  0
0 0  0
0 0  0
0 0  0
0 0  0
0 0  0
0 0  0
0 0  0
0 0  0
0 0  0
0 0  0
0 0  0
0 0  0
0 0  0
0 0  0
0 0  0
0 0  0
0 0  0
0 0  0
0 0  0
0 0  0
0 0  0
0 0  0
0 0  0
0 0  0
0 0  0
0 0  0
0 0  0
0 0  0
0 0  0
0 0  0
0 0  0
0 0  0
0 0  0
0 0  0
0 0  0
0 0  0
0 0  0
0 0  0
0 0  0
0 0  0
0 0  0
0 0  0
0 0  0
0 0  0
0 0  0
0 0  0
0 0  0
0 0  0
0 0  0
0 0  0
0 0  0
0 0  0
0 0  0
0 0  0
0 0  0
0 0  0
0 0  0
0 0  0
0 0  0
0 0  0
0 0  0
0 0  0
0 0  0
0 0  0
0 0  0
0 0  0
0 0  0
0 0  0
0 0  0
0 0  0
0 0  0
0 0  0
0 0  0
0 0  0
0 0  0
0 0  0
0 0  0
0 0  0
0 0  0
0 0  0
0 0  0
0 0  0
0 0  0
0 0  0
0 0  0
0 0  0
0 0  0
0 0  0
0 0  0
0 0  0
0 0  0
0 0  0
0 0  0
0 0  0
0 0  0
0 0  0
0 0  0
0 0  0
0 0  0
0 0  0
0 0  0
0 0  0
0 0  0
0 0  0
0 0  0
0 0  0
0 0  0
0 0  0
0 0  0
0 0  0
0 0  0
0 0  0
0 0  0
0 0  0
0 0  0
0 0  0
0 0  0
0 0  0
0 0  0
0 0  0
0 0  0
0 0  0
0 0  0
0 0  0
0 0  0
0 0  0
0 0  0
0 0  0
0 0  0
0 0  0
0 0  0
0 0  0
0 0  0
0 0  0
0 0  0
0 0  0
0 0  0
0 0  0
0 0  0
0 0  0
0 0  0
0 0  0
0 0  0
0 0  0
0 0  0
0 0  0
0 0  0
0 0  0
0 0  0
0 0  0
0 0  0
0 0  0
0 0  0
0 0  0
0 0  0
0 0  0
0 0  0
0 0  0
0 0  0
0 0  0
0 0  0
0 0  0
0 0  0
0 0  0
0 0  0
0 0  0
0 0  0
0 0  0
0 0  0
0 0  0
0 0  0
0 0  0
0 0  0
0 0  0
0 0  0
0 0  0
0 0  0
0 0  0
0 0  0
0 0  0
0 0  0
0 0  0
0 0  0
0 0  0
0 0  0
0 0  0
0 0  0
0 0  0
0 0  0
0 0  0
0 0  0
0 0  0
0 0  0
0 0  0
0 0  0
0 0  0
0 0  0
0 0  0
0 0  0
0 0  0
0 0  0
0 0  0
0 0  0
0 0  0
0 0  0

SCALARS pressure double 1
LOOKUP_TABLE default
2.62629
2.62496
2.62214
2.61796
2.61256
2.6061
2.59879
2.59084
2.58246
2.57386
2.56524
2.5568
2.5487
2.54111
2.53414
2.52791
2.5225
2.51797
2.51435
2.51168
2.50997
2.50925
2.50952
2.51077
2.51297
2.51611
2.52015
2.52502
2.53063
2.53687
2.5436
2.55066
2.55786
2.56499
2.57186
2.5782
2.58379
2.58834
2.5916
2.59334
2.43011
2.42872
2.42582
2.42151
2.41596
2.40932
2.40182
2.39367
2.38508
2.37628
2.36746
2.35882
2.35054
2.34278
2.33568
2.32933
2.32383
2.31922
2.31556
2.31285
2.31111
2.31039
2.31067
2.31194
2.31419
2.31739
2.32151
2.32648
2.33222
2.33862
2.34554
2.3528
2.36021
2.36757
2.37464
2.38119
2.38695
2.39165
2.39501
2.39681
2.23752
2.23604
2.23296
2.22841
2.22255
2.21557
2.20769
2.19914
2.19014
2.18092
2.1717
2.16268
2.15404
2.14597
2.13859
2.13201
2.12633
2.12159
2.11783
2.11506
2.11329
2.11256
2.11286
2.11418
2.11651
2.11983
2.12411
2.12929
2.1353
2.14202
2.1493
2.15697
2.16482
2.17262
2.18013
2.18708
2.19319
2.19817
2.20172
2.20362
2.04859
2.04696
2.04362
2.0387
2.03237
2.02486
2.0164
2.00724
1.99762
1.98778
1.97795
1.96833
1.95916
1.9506
1.94281
1.9359
1.92996
1.92504
1.92114
1.91828
1.91647
1.91574
1.91607
1.91746
1.9199
1.92339
1.9279
1.93339
1.9398
1.947
1.95484
1.96315
1.97167
1.98016
1.98834
1.9959
2.00255
2.00795
2.0118
2.01385
1.86341
1.86157
1.85785
1.85241
1.84544
1.8372
1.82794
1.81795
1.80749
1.7968
1.78613
1.77571
1.76579
1.75658
1.74824
1.7409
1.73463
1.72947
1.72541
1.72246
1.7206
1.71986
1.72024
1.72171
1.72429
1.72799
1.7328
1.73869
1.74561
1.75346
1.76208
1.77126
1.78072
1.79016
1.79927
1.8077
1.81508
1.82107
1.82534
1.8276
1.68207
1.67996
1.67573
1.66958
1.66176
1.65255
1.64227
1.63122
1.61968
1.60791
1.59615
1.5847
1.57381
1.56376
1.55474
1.54687
1.54022
1.53479
1.53057
1.52752
1.52562
1.52489
1.52531
1.52688
1.52961
1.53354
1.53868
1.54505
1.5526
1.56127
1.57088
1.5812
1.5919
1.60262
1.61295
1.62251
1.63087
1.63764
1.64244
1.64499
1.50469
1.50221
1.49731
1.49023
1.4813
1.47087
1.4593
1.44695
1.43411
1.42101
1.40791
1.39513
1.38303
1.37194
1.36209
1.35362
1.34656
1.34088
1.33651
1.33339
1.33147
1.33075
1.33122
1.33288
1.33576
1.33991
1.34539
1.35226
1.36054
1.37019
1.38105
1.39284
1.40515
1.41749
1.4294
1.4404
1.45002
1.45778
1.46327
1.46618
1.33138
1.32838
1.32258
1.3143
1.30393
1.29196
1.27885
1.26497
1.25062
1.23594
1.22121
1.2068
1.19317
1.18081
1.17001
1.16091
1.15347
1.14759
1.14313
1.14
1.1381
1.13741
1.13793
1.13965
1.14263
1.14695
1.15272
1.16008
1.16913
1.17991
1.1923
1.20596
1.22033
1.23475
1.24864
1.26145
1.27263
1.28164
1.28801
1.29138
1.16213
1.15843
1.15143
1.14154
1.12933
1.11546
1.10052
1.08494
1.06895
1.05252
1.03586
1.01939
1.00381
0.989897
0.978068
0.968391
0.960706
0.954771
0.950358
0.947299
0.945482
0.94485
0.945402
0.947131
0.950116
0.954477
0.960405
0.968131
0.977908
0.989923
1.00417
1.02023
1.03725
1.05429
1.07064
1.08568
1.0988
1.10938
1.11687
1.12083
0.996629
0.991981
0.983389
0.971374
0.956763
0.940541
0.923544
0.90625
0.888664
0.87046
0.851598
0.83247
0.814266
0.798477
0.785647
0.775635
0.768007
0.76229
0.75812
0.755277
0.753623
0.753073
0.753621
0.755267
0.758111
0.762305
0.768126
0.775927
0.786196
0.799403
0.81584
0.835105
0.855608
0.875916
0.895251
0.912965
0.928496
0.941085
0.950008
0.954758
0.833937
0.828092
0.817469
0.802602
0.784772
0.765669
0.746552
0.727888
0.709117
0.689547
0.668326
0.645558
0.623372
0.605352
0.591872
0.582128
0.575136
0.570056
0.566407
0.563958
0.562579
0.562142
0.562624
0.564051
0.566549
0.570256
0.57555
0.582863
0.593018
0.606991
0.625882
0.649763
0.674955
0.699241
0.721994
0.742749
0.761328
0.776594
0.787461
0.793332
0.671963
0.664893
0.651929
0.63314
0.610682
0.588094
0.567269
0.548229
0.529636
0.509938
0.48665
0.458515
0.428778
0.408472
0.395547
0.387379
0.382055
0.37811
0.375264
0.373435
0.372473
0.372209
0.372518
0.37354
0.375457
0.37829
0.38249
0.388385
0.397115
0.410487
0.431475
0.463323
0.495009
0.523701
0.549918
0.573604
0.596287
0.615317
0.628836
0.636371
0.507609
0.499985
0.484857
0.460271
0.429854
0.403402
0.382746
0.365538
0.349871
0.332778
0.30923
0.273451
0.224418
0.204252
0.195177
0.191111
0.18937
0.186718
0.184712
0.183895
0.183477
0.183598
0.183496
0.183826
0.185019
0.186639
0.189228
0.192481
0.197221
0.206793
0.226167
0.276452
0.316854
0.348855
0.377795
0.402429
0.431813
0.456297
0.472939
0.482703
0.339051
0.332625
0.316536
0.282982
0.234359
0.206165
0.190811
0.179895
0.170533
0.160456
0.14239
0.10214
-0.0093672
-0.0116284
-0.00981394
-0.00606479
-0.00013887
-0.00327008
-0.00519429
-0.00380293
-0.00398385
-0.00252857
-0.00375044
-0.00480065
-0.00394538
-0.00388471
-0.00257505
-0.00295734
-0.00652359
-0.00577686
-0.00978044
0.098535
0.145943
0.174875
0.206512
0.222167
0.26787
0.299699
0.317803
0.329265
0.169242
0.165844
0.152389
0.112204
0.0180884
0.000994769
-0.00248516
-0.0053033
-0.00696473
-0.00491972
0.000533988
0.00260138
0
0
0
0
0
0
0
0
0
0
0
0
0
0
0
0
0
0
0
-0.0188213
-0.00502252
-0.000103946
0.0511774
0.00918338
0.114602
0.149891
0.160045
0.170894
0.00250192
0.00129376
0.00537382
0.00666643
0
0
0
0
0
0
0
0
0
0
0
0
0
0
0
0
0
0
0
0
0
0
0
0
0
0
0
0
0
0
0
0
0.036341
0.0285711
0.00191089
0.00497561
0
0
0
0
0
0
0
0
0
0
0
0
0
0
0
0
0
0
0
0
0
0
0
0
0
0
0
0
0
0
0
0
0
0
0
0
0
0
0
0
0
0
0
0
0
0
0
0
0
0
0
0
0
0
0
0
0
0
0
0
0
0
0
0
0
0
0
0
0
0
0
0
0
0
0
0
0
0
0
0
0
0
0
0
0
0
0
0
0
0
0
0
0
0
0
0
0
0
0
0
0
0
0
0
0
0
0
0
0
0
0
0
0
0
0
0
0
0
0
0
0
0
0
0
0
0
0
0
0
0
0
0
0
0
0
0
0
0
0
0
0
0
0
0
0
0
0
0
0
0
0
0
0
0
0
0
0
0
0
0
0
0
0
0
0
0
0
0
0
0
0
0
0
0
0
0
0
0
0
0
0
0
0
0
0
0
0
0
0
0
0
0
0
0
0
0
0
0
0
0
0
0
0
0
0
0
0
0
0
0
0
0
0
0
0
0
0
0
0
0
0
0
0
0
0
0
0
0
0
0
0
0
0
0
0
0
0
0
0
0
0
0
0
0
0
0
0
0
0
0
0
0
0
0
0
0
0
0
0
0
0
0
0
0
0
0
0
0
0
0
0
0
0
0
0
0
0
0
0
0
0
0
0
0
0
0
0
0
0
0
0
0
0
0
0
0
0
0
0
0
0
0
0
0
0
0
0
0
0
0
0
0
0
0
0
0
0
0
0
0
0
0
0
0
0
0
0
0
0
0
0
0
0
0
0
0
0
0
0
0
0
0
0
0
0
0
0
0
0
0
0
0
0
0
0
0
0
0
0
0
0
0
0
0
0
0
0
0
0
0
0
0
0
0
0
0
0
0
0
0
0
0
0
0
0
0
0
0
0
0
0
0
0
0
0
0
0
0
0
0
0
0
0
0
0
0
0
0
0
0
0
0
0
0
0
0
0
0
0
0
0
0
0
0
0
0
0
0
0
0
0
0
0
0
0
0
0
0
0
0
0
0
0
0
0
0
0
0
0
0
0
0
0
0
0
0
0
0
0
0
0
0
0
0
0
0
0
0
0
0
0
0
0
0
0
0
0
0
0
0
0
0
0
0
0
0
0
0
0
0
0
0
0
0
0
0
0
0
0
0
0
0
0
0
0
0
0
0
0
0
0
0
0
0
0
0
0
0
0
0
0
0
0
0
0
0
0
0
0
0
0
0
0
0
0
0
0
0
0
0
0
0
0
0
0
0
0
0
0
0
0
0
0
0
0
0
0
0
0
0
SCALARS rhs double 1
LOOKUP_TABLE default
-5.08102
-5.02166
-5.01924
-5.0171
-5.01495
-5.01288
-5.01098
-5.00931
-5.00792
-5.00685
-5.00608
-5.00559
-5.00536
-5.00533
-5.00546
-5.00572
-5.00606
-5.0064
-5.0067
-5.00687
-5.00627
-5.00636
-5.00657
-5.00626
-5.00592
-5.00559
-5.0053
-5.00503
-5.00479
-5.00455
-5.00433
-5.00415
-5.00412
-5.00438
-5.00514
-5.00662
-5.00898
-5.01208
-5.01526
-5.01943
-0.0221496
0.0340059
0.0351888
0.0362148
0.0373416
0.0384534
0.0394665
0.0402817
0.0408575
0.0410976
0.0411723
0.0410503
0.0407635
0.0403473
0.0398382
0.0392712
0.0386893
0.0381472
0.0377048
0.0374189
0.0379734
0.0378289
0.0376012
0.0379303
0.0383123
0.0387063
0.0390923
0.0394679
0.0398404
0.0402156
0.0405845
0.0409059
0.0410848
0.0410232
0.0403575
0.0388163
0.036239
0.0328067
0.0292642
0.0248204
-0.018801
0.0349911
0.0361179
0.0371231
0.0382393
0.0393662
0.0403971
0.041235
0.0418286
0.042016
0.042111
0.0420129
0.0417491
0.0413559
0.0408646
0.0403107
0.0397363
0.0391967
0.0387592
0.0384869
0.0391069
0.0389791
0.0387692
0.0391348
0.0395383
0.0399356
0.0403084
0.0406588
0.0409986
0.0413367
0.0416634
0.0419318
0.0420367
0.0419247
0.0411533
0.039485
0.0368067
0.0333316
0.0298059
0.0252919
-0.0158156
0.035229
0.0362896
0.0372741
0.0384005
0.0395773
0.040668
0.0415734
0.0422332
0.0423639
0.0425418
0.0425101
0.0423062
0.0419668
0.0415243
0.041009
0.0404632
0.0399466
0.0395322
0.0392907
0.0400006
0.0399091
0.0397148
0.0401207
0.0405408
0.0409296
0.0412722
0.0415771
0.0418625
0.0421403
0.0423985
0.042581
0.0425678
0.0423492
0.0414022
0.0395283
0.036682
0.0331235
0.0296017
0.0249535
-0.0131924
0.0347773
0.035741
0.0366877
0.0378456
0.0391109
0.0403243
0.0413724
0.042133
0.0422547
0.042599
0.0426964
0.0426105
0.0423795
0.0420336
0.0416047
0.0411341
0.040682
0.040327
0.040146
0.0409521
0.040933
0.0407332
0.0411639
0.0415757
0.0419273
0.0422116
0.042445
0.042652
0.0428462
0.0430097
0.0430721
0.0428946
0.0425191
0.0413317
0.039176
0.0360961
0.0324121
0.0288777
0.0240195
-0.0116534
0.0330249
0.0338421
0.0347341
0.0359536
0.0373813
0.0388457
0.0401772
0.0410327
0.0413603
0.0419652
0.0423132
0.04245
0.0424242
0.0422753
0.0420314
0.0417285
0.0414264
0.0412013
0.0411261
0.0420029
0.0421132
0.0418515
0.0422561
0.0425992
0.0428567
0.043035
0.0431571
0.0432503
0.043327
0.0433573
0.0432494
0.0428436
0.0422772
0.0407924
0.038283
0.0349129
0.0310703
0.0275137
0.0223618
-0.0126699
0.0287118
0.0293383
0.0301759
0.03152
0.0332811
0.0352442
0.0371485
0.0381364
0.0389256
0.0400598
0.0408626
0.0414059
0.0417735
0.0420143
0.0421431
0.042176
0.0421668
0.0421806
0.0422701
0.0431656
0.0434456
0.0430277
0.0433086
0.0434761
0.0435478
0.043544
0.0434847
0.0433916
0.0432749
0.0430843
0.0426948
0.0419276
0.0411684
0.0393344
0.0364105
0.0327387
0.0287688
0.0252425
0.0197297
-0.0193074
0.0192475
0.0197367
0.0206135
0.0222754
0.0247525
0.0277603
0.0308266
0.0316377
0.0338372
0.0359042
0.0375102
0.0387745
0.0398859
0.0408929
0.0417277
0.0423461
0.0428158
0.0432029
0.0435151
0.0443495
0.0448139
0.0441025
0.0441229
0.0439575
0.0437156
0.0434072
0.0430256
0.0425582
0.0420367
0.0413902
0.0404327
0.0389669
0.0380305
0.0357426
0.0323448
0.0284787
0.0246057
0.0213677
0.0155076
-0.0377319
-0.000436544
0.000334275
0.00165363
0.00415978
0.00826548
0.0135559
0.0190261
0.0192847
0.024537
0.0281842
0.0311639
0.0335881
0.0360862
0.0385763
0.0406645
0.0421534
0.0432278
0.0440984
0.0446892
0.0453951
0.0460017
0.0448671
0.0444868
0.0437833
0.0430938
0.0422646
0.0412715
0.0399249
0.0384447
0.0367713
0.0345937
0.0316508
0.0304633
0.0273192
0.0233118
0.0195713
0.016408
0.0141631
0.00811844
-0.0786955
-0.0387959
-0.0364805
-0.0336835
-0.0292367
-0.0213736
-0.0109359
-0.00194879
0.000431066
0.00975459
0.0159461
0.0212776
0.0248351
0.0297092
0.0349657
0.039191
0.041835
0.0432584
0.0445948
0.045646
0.0462167
0.0469007
0.0452897
0.0444098
0.0429309
0.0418775
0.0401164
0.0381046
0.0346216
0.031021
0.0272165
0.0226487
0.0167978
0.0148076
0.00946329
0.00438939
0.00127159
-0.000225581
-0.000238658
-0.00637036
-0.154183
-0.104557
-0.0987845
-0.0931898
-0.0858901
-0.0694372
-0.0472131
-0.0362522
-0.0193505
-0.00950973
0.00062607
0.0109695
0.0115977
0.0196439
0.0296311
0.037695
0.042504
0.0429015
0.0441707
0.0464997
0.0468853
0.0477316
0.0456477
0.0441482
0.0417212
0.0413938
0.0379919
0.035184
0.0266467
0.0198271
0.0124402
0.00387012
-0.006768
-0.0119007
-0.0225279
-0.0298389
-0.0320547
-0.0319982
-0.0293069
-0.0375713
-0.255689
-0.190874
-0.184414
-0.177082
-0.171552
-0.133663
-0.0860873
-0.0642885
-0.0342529
-0.027866
-0.013805
0.0108372
-0.00664116
0.00274457
0.019466
0.0346977
0.0458414
0.0427265
0.0415566
0.0476127
0.046488
0.048655
0.046162