# vtk DataFile Version 4.0
Nusif Fluid VTK output
ASCII
DATASET STRUCTURED_POINTS
DIMENSIONS 40 30 1
ORIGIN 0 0 0 
SPACING 0.2 0.2 1
POINT_DATA 1200 

VECTORS velocity double
-0.00319141 0.00328031  0
-0.00948395 0.00323009  0
-0.015581 0.00312498  0
-0.0214099 0.00296175  0
-0.0268548 0.00274055  0
-0.0318042 0.0024656  0
-0.0361581 0.00214413  0
-0.0398321 0.00178454  0
-0.0427579 0.00139452  0
-0.0448805 0.000980011  0
-0.0461551 0.000544915  0
-0.0465429 9.16524e-05  0
-0.0460096 -0.000377739  0
-0.0445261 -0.000860043  0
-0.0420727 -0.00134906  0
-0.0386474 -0.00183345  0
-0.034277 -0.00229553  0
-0.0290301 -0.00271105  0
-0.0230272 -0.00305211  0
-0.0164436 -0.00329273  0
-0.00949767 -0.00341465  0
-0.00242896 -0.00341548  0
0.00453312 -0.00330815  0
0.0111987 -0.00311857  0
0.0174333 -0.00287675  0
0.0231604 -0.00261034  0
0.0283517 -0.00234014  0
0.0330122 -0.00207842  0
0.0371617 -0.00182812  0
0.0408153 -0.00158131  0
0.0439582 -0.00131627  0
0.0465145 -0.000993534  0
0.0483096 -0.000553865  0
0.0490351 7.70985e-05  0
0.048237 0.000970592  0
0.0453577 0.00215908  0
0.03986 0.00358937  0
0.0314348 0.00508686  0
0.0202311 0.00636801  0
0.00699433 0.00711985  0
-0.00324636 0.00993771  0
-0.00965203 0.00978884  0
-0.0158671 0.00947492  0
-0.021814 0.00898372  0
-0.0273701 0.00831499  0
-0.0324178 0.00748256  0
-0.0368537 0.00650994  0
-0.0405932 0.00542377  0
-0.0435706 0.00424811  0
-0.0457346 0.00300084  0
-0.047043 0.00169305  0
-0.0474585 0.000330815  0
-0.0469455 -0.00108123  0
-0.0454703 -0.00253506  0
-0.0430061 -0.00401319  0
-0.0395416 -0.00548245  0
-0.0350945 -0.00688882  0
-0.0297276 -0.00815744  0
-0.0235625 -0.0092005  0
-0.0167836 -0.00993428  0
-0.00962848 -0.0103017  0
-0.00235991 -0.0102933  0
0.00477184 -0.00995152  0
0.0115632 -0.0093589  0
0.0178766 -0.00861045  0
0.0236398 -0.007792  0
0.0288333 -0.00696715  0
0.0334713 -0.00617236  0
0.0375819 -0.00541533  0
0.0411857 -0.00467093  0
0.0442706 -0.00387242  0
0.0467603 -0.00289994  0
0.0484776 -0.00157496  0
0.0491122 0.000324364  0
0.0482129 0.00300789  0
0.0452346 0.00656731  0
0.0396634 0.0108383  0
0.0312168 0.0152983  0
0.0200595 0.0191061  0
0.00692904 0.0213373  0
-0.00336246 0.0168106  0
-0.0100069 0.0165698  0
-0.01647 0.0160514  0
-0.022663 0.0152257  0
-0.028447 0.0140911  0
-0.0336913 0.0126755  0
-0.0382865 0.0110244  0
-0.0421498 0.00918773  0
-0.0452221 0.00720853  0
-0.0474607 0.00511672  0
-0.0488303 0.00292835  0
-0.0492964 0.00064943  0
-0.0488204 -0.00171742  0
-0.0473596 -0.00416395  0
-0.0448726 -0.00666538  0
-0.0413292 -0.00916831  0
-0.0367289 -0.0115807  0
-0.0311225 -0.0137695  0
-0.0246324 -0.0155744  0
-0.0174632 -0.0168388  0
-0.00988987 -0.0174557  0
-0.00222209 -0.0174057  0
0.00524699 -0.0167695  0
0.0122877 -0.0157022  0
0.0187567 -0.0143781  0
0.0245911 -0.0129501  0
0.0297887 -0.0115275  0
0.0343818 -0.0101697  0
0.0384133 -0.00888602  0
0.0419143 -0.00763015  0
0.0448779 -0.00628614  0
0.0472276 -0.00464958  0
0.0487821 -0.00242047  0
0.0492276 0.000766895  0
0.0481207 0.0052488  0
0.0449441 0.0111586  0
0.039232 0.0182076  0
0.0307538 0.0255309  0
0.0197022 0.0317591  0
0.00679445 0.0353992  0
-0.00355908 0.0240023  0
-0.0106068 0.0236823  0
-0.0174843 0.0229631  0
-0.0240769 0.0217824  0
-0.0302159 0.0201396  0
-0.0357508 0.0180874  0
-0.0405679 0.0157052  0
-0.0445924 0.0130744  0
-0.0477807 0.0102612  0
-0.0501067 0.0073064  0
-0.0515476 0.00422626  0
-0.0520733 0.00101952  0
-0.0516402 -0.00232112  0
-0.0501916 -0.00579486  0
-0.047663 -0.00937584  0
-0.0439967 -0.0129934  0
-0.0391649 -0.0165138  0
-0.0332002 -0.019734  0
-0.0262267 -0.0223997  0
-0.0184783 -0.0242572  0
-0.0102861 -0.0251288  0
-0.00202939 -0.0249827  0
0.00593591 -0.0239521  0
0.0133432 -0.0222923  0
0.0200422 -0.0202801  0
0.0259848 -0.0181488  0
0.0311926 -0.016057  0
0.0357214 -0.0140843  0
0.039633 -0.0122361  0
0.0429708 -0.0104396  0
0.0457343 -0.00852384  0
0.0478478 -0.00619454  0
0.0491266 -0.00302756  0
0.0492566 0.00148013  0
0.0478109 0.00777002  0
0.0443208 0.0159861  0
0.0384012 0.0256939  0
0.029905 0.0357008  0
0.0190641 0.0441632  0
0.006557 0.0490914  0
-0.00389016 0.031729  0
-0.0116103 0.0313453  0
-0.0191562 0.0304118  0
-0.0263553 0.0288129  0
-0.0329883 0.0265677  0
-0.0388877 0.0237793  0
-0.0439496 0.0205773  0
-0.0481248 0.0170859  0
-0.0514018 0.013398  0
-0.0537849 0.0095607  0
-0.0552708 0.00558004  0
-0.0558345 0.00143562  0
-0.0554238 -0.00290125  0
-0.0539606 -0.0074474  0
-0.0513505 -0.0121832  0
-0.0475007 -0.0170235  0
-0.04235 -0.0217879  0
-0.03591 -0.0261864  0
-0.0283089 -0.0298434  0
-0.0198179 -0.0323743  0
-0.0108377 -0.0335053  0
-0.00183365 -0.0331879  0
0.00676283 -0.0316292  0
0.0146423 -0.0292221  0
0.0216485 -0.026375  0
0.0277498 -0.0234168  0
0.032992 -0.0205573  0
0.0374527 -0.017891  0
0.0412079 -0.0154129  0
0.0443095 -0.013018  0
0.0467619 -0.0104765  0
0.0484925 -0.00740059  0
0.04932 -0.00324169  0
0.0489412 0.00262964  0
0.0469658 0.0107285  0
0.0430091 0.0211613  0
0.0368157 0.0333185  0
0.0283654 0.0457096  0
0.0179399 0.0561075  0
0.00614447 0.0621362  0
-0.0044872 0.0403923  0
-0.0133987 0.0399464  0
-0.0220615 0.0387127  0
-0.0301689 0.0365109  0
-0.0374323 0.0334575  0
-0.0437069 0.0297539  0
-0.048946 0.0255932  0
-0.0531623 0.0211499  0
-0.0564078 0.0165441  0
-0.058738 0.0118145  0
-0.0601763 0.00693631  0
-0.0606995 0.00185123  0
-0.0602371 -0.00350568  0
-0.0586805 -0.00917882  0
-0.0558987 -0.0151601  0
-0.0517621 -0.0213497  0
-0.0461795 -0.027512  0
-0.0391477 -0.0332509  0
-0.0308051 -0.0380394  0
-0.0214653 -0.041326  0
-0.0115998 -0.0427156  0
-0.00175612 -0.0421415  0
0.00756303 -0.0399071  0
0.016009 -0.0365849  0
0.0234187 -0.0327427  0
0.0297699 -0.0288158  0
0.0351189 -0.025063  0
0.0395465 -0.021586  0
0.0431242 -0.0183626  0
0.0458973 -0.0152541  0
0.0478697 -0.0119753  0
0.0489781 -0.00805024  0
0.0490622 -0.00281246  0
0.0478569 0.00447627  0
0.0450463 0.0143601  0
0.0403905 0.0268346  0
0.0338478 0.0410735  0
0.0255926 0.0553523  0
0.0159639 0.0672112  0
0.00542858 0.0740554  0
-0.00564181 0.0508163  0
-0.0168108 0.0502471  0
-0.0274376 0.0483996  0
-0.0368964 0.0450873  0
-0.0448496 0.0407938  0
-0.0513446 0.0358824  0
-0.0565097 0.0305632  0
-0.0604766 0.0250563  0
-0.0634095 0.0195083  0
-0.0654484 0.0139105  0
-0.0666455 0.00816617  0
-0.0669616 0.00215031  0
-0.0662863 -0.0042533  0
-0.0644649 -0.0111205  0
-0.0613262 -0.0184505  0
-0.0567146 -0.0261194  0
-0.0505298 -0.0338217  0
-0.042778 -0.0410366  0
-0.033624 -0.0470621  0
-0.0234203 -0.0511585  0
-0.0126839 -0.0527964  0
-0.00200523 -0.0518941  0
0.0080774 -0.048867  0
0.0171919 -0.0444957  0
0.0251608 -0.0395203  0
0.0319442 -0.0344819  0
0.0375694 -0.0296796  0
0.0420766 -0.0252118  0
0.0454909 -0.0210356  0
0.0478197 -0.0169888  0
0.0490539 -0.0127521  0
0.0491538 -0.00778599  0
0.0480174 -0.0013278  0
0.0454673 0.00744445  0
0.0413208 0.0190468  0
0.0355774 0.0332451  0
0.0285581 0.0489231  0
0.020755 0.064259  0
0.0125704 0.0768159  0
0.00421074 0.0840439  0
-0.00794612 0.0647086  0
-0.023556 0.0637895  0
-0.0377757 0.0604061  0
-0.0491798 0.0546452  0
-0.0575597 0.0482698  0
-0.0637269 0.0417683  0
-0.068233 0.0350472  0
-0.0713584 0.0283622  0
-0.0734475 0.0219211  0
-0.0747812 0.015566  0
-0.0754222 0.00904381  0
-0.0752623 0.00212335  0
-0.0741012 -0.00536874  0
-0.0717097 -0.0135243  0
-0.0678792 -0.0223226  0
-0.0624594 -0.0315856  0
-0.0553929 -0.0409137  0
-0.0467481 -0.0496481  0
-0.0367434 -0.056916  0
-0.0257522 -0.0618059  0
-0.0142689 -0.0636748  0
-0.00283712 -0.062432  0
0.00804024 -0.0585946  0
0.0179942 -0.0531416  0
0.0268105 -0.0469643  0
0.0343745 -0.0406892  0
0.0406127 -0.034639  0
0.0454493 -0.0288987  0
0.0487922 -0.0234074  0
0.0505521 -0.0180064  0
0.0506803 -0.0123966  0
0.0491832 -0.00604295  0
0.0460877 0.00186331  0
0.041394 0.0122001  0
0.0351216 0.0254133  0
0.0276136 0.0408334  0
0.0198194 0.0568521  0
0.012792 0.0718647  0
0.00701555 0.0838758  0
0.00222841 0.0908356  0
-0.0124372 0.0854038  0
-0.0367017 0.0836331  0
-0.0576307 0.0764167  0
-0.0716685 0.0647823  0
-0.0792863 0.0548357  0
-0.0837647 0.0465521  0
-0.0865048 0.0382126  0
-0.0877355 0.030255  0
-0.088091 0.0231741  0
-0.088115 0.0163709  0
-0.0878007 0.00926543  0
-0.0868342 0.00147464  0
-0.084817 -0.00719977  0
-0.0813967 -0.0168066  0
-0.0763384 -0.027231  0
-0.0695633 -0.0381739  0
-0.0611531 -0.0491038  0
-0.0513259 -0.0592316  0
-0.0403862 -0.0675784  0
-0.0286802 -0.0731421  0
-0.0165607 -0.0752423  0
-0.00439421 -0.0737635  0
0.00743534 -0.0692706  0
0.0185887 -0.0628729  0
0.0287783 -0.0555384  0
0.037731 -0.0479307  0
0.0451753 -0.0403781  0
0.0508259 -0.0329444  0
0.0543706 -0.0255459  0
0.0555122 -0.0180653  0
0.0540796 -0.0103278  0
0.050146 -0.00197413  0
0.044022 0.0077216  0
0.0360884 0.0196773  0
0.0265869 0.0344188  0
0.016146 0.0504859  0
0.00682554 0.0650237  0
0.000767887 0.0774885  0
-0.00141971 0.0869274  0
-0.000778349 0.0926416  0
-0.0204101 0.118533  0
-0.0603477 0.11533  0
-0.0935956 0.099591  0
-0.110986 0.0737439  0
-0.114805 0.0580205  0
-0.115053 0.0488022  0
-0.114333 0.0386892  0
-0.112016 0.0293982  0
-0.109353 0.022429  0
-0.107386 0.0158773  0
-0.105789 0.00855201  0
-0.103752 -0.000112202  0
-0.10048 -0.0101986  0
-0.0954316 -0.0215737  0
-0.0883738 -0.0338768  0
-0.0794108 -0.0465628  0
-0.0689143 -0.0589181  0
-0.0573745 -0.0700806  0
-0.0451948 -0.079145  0
-0.032601 -0.0851714  0
-0.0196381 -0.0875912  0
-0.0063739 -0.0861408  0
0.00693783 -0.0813298  0
0.0200018 -0.0743259  0
0.0324411 -0.0660087  0
0.0437394 -0.0570054  0
0.0533429 -0.0476444  0
0.0606885 -0.037967  0
0.0651226 -0.027794  0
0.0659149 -0.017042  0
0.0625125 -0.00580483  0
0.0550277 0.00563356  0
0.0444294 0.0175481  0
0.0320717 0.0308552  0
0.0182272 0.0473005  0
0.00288798 0.0640975  0
-0.00978468 0.074119  0
-0.0152505 0.080633  0
-0.0128661 0.0843042  0
-0.0048733 0.0873495  0
-0.032371 0.171625  0
-0.0966122 0.167087  0
-0.149797 0.13498  0
-0.170308 0.0769632  0
-0.165748 0.0547511  0
-0.159635 0.0468953  0
-0.15349 0.0344315  0
-0.145661 0.0242168  0
-0.139048 0.0190419  0
-0.134933 0.0138902  0
-0.132131 0.00684756  0
-0.128984 -0.0028843  0
-0.124078 -0.014896  0
-0.116656 -0.0286392  0
-0.106544 -0.0432726  0
-0.0941835 -0.0577815  0
-0.0804428 -0.0712275  0
-0.0662463 -0.0827983  0
-0.0520609 -0.0920831  0
-0.0378473 -0.0983314  0
-0.0231274 -0.101404  0
-0.00762537 -0.100384  0
0.0083041 -0.0956179  0
0.0244396 -0.0885269  0
0.0404274 -0.0795239  0
0.0554491 -0.069099  0
0.068621 -0.0576145  0
0.0791461 -0.0451554  0
0.08596 -0.0311408  0
0.0875095 -0.0153228  0
0.0821964 0.0019066  0
0.0699276 0.0183909  0
0.0530169 0.0330152  0
0.0356487 0.045831  0
0.0176467 0.0648874  0
-0.00621367 0.0864067  0
-0.0269639 0.0859197  0
-0.0332324 0.0812686  0
-0.0259546 0.0747188  0
-0.00956529 0.0732706  0
-0.0494293 0.253613  0
-0.142154 0.242635  0
-0.208572 0.179789  0
-0.221691 0.0665092  0
-0.213687 0.0533636  0
-0.210054 0.0392543  0
-0.196122 0.0226914  0
-0.183629 0.0163196  0
-0.177014 0.0143939  0
-0.172918 0.0110259  0
-0.169734 0.0044318  0
-0.165517 -0.00712366  0
-0.158382 -0.0219849  0
-0.147557 -0.0390847  0
-0.132935 -0.056847  0
-0.115438 -0.0733501  0
-0.0966911 -0.0874318  0
-0.0783669 -0.0984001  0
-0.0609143 -0.107405  0
-0.0438467 -0.113576  0
-0.0258101 -0.118201  0
-0.00617601 -0.118008  0
0.0138492 -0.113233  0
0.0343966 -0.106879  0
0.0556568 -0.0977038  0
0.0763328 -0.0859003  0
0.0950121 -0.0719476  0
0.110879 -0.0564973  0
0.122658 -0.0376743  0
0.127624 -0.0145855  0
0.121891 0.0129332  0
0.104287 0.0379521  0
0.078098 0.0572567  0
0.0561302 0.0616222  0
0.0399562 0.0839524  0
0.00047827 0.13138  0
-0.0408285 0.103746  0
-0.0494845 0.0791086  0
-0.0372064 0.0580623  0
-0.0135025 0.0505691  0
-0.0472311 0.294581  0
-0.0944622 0.286119  0
-0.0987222 0.207366  0
-0.121695 0.0753975  0
-0.192809 0.107972  0
-0.227905 0.0166914  0
-0.200858 0.00500571  0
-0.204013 0.0253914  0
-0.219333 0.0147379  0
-0.221164 0.00910682  0
-0.218608 0.00131657  0
-0.212345 -0.0137787  0
-0.201638 -0.0324557  0
-0.186036 -0.054324  0
-0.164913 -0.0766324  0
-0.139859 -0.0953955  0
-0.113716 -0.109556  0
-0.0896876 -0.117908  0
-0.0681004 -0.126217  0
-0.0477003 -0.131512  0
-0.0256227 -0.139659  0
-0.000681344 -0.140404  0
0.0235947 -0.134417  0
0.0488849 -0.130811  0
0.077356 -0.122781  0
0.106501 -0.109922  0
0.133223 -0.0926043  0
0.156904 -0.0746665  0
0.1768 -0.0504571  0
0.189458 -0.0187063  0
0.186898 0.0260571  0
0.166498 0.063525  0
0.121791 0.10329  0
0.0869819 0.0731014  0
0.0958158 0.0805387  0
0.0389921 0.231666  0
-0.0460732 0.130245  0
-0.0567853 0.0723768  0
-0.040293 0.0364111  0
-0.014326 0.0229279  0
-0.0472311 0.14306  0
-0.0572155 0.14306  0
-0.00271797 0.105813  0
-0.096069 0.0470553  0
-0.137368 0.0799793  0
-0.0680646 -0.000414363  0
-0.090146 0.0175268  0
-0.185285 0.111557  0
-0.261286 0.0204851  0
-0.267004 0.0116641  0
-0.265529 -0.00453131  0
-0.254116 -0.0248819  0
-0.238844 -0.0466049  0
-0.218 -0.0758969  0
-0.18816 -0.105304  0
-0.153287 -0.125933  0
-0.118335 -0.139396  0
-0.088958 -0.140755  0
-0.0651098 -0.148086  0
-0.0438742 -0.150558  0
-0.0205674 -0.165276  0
0.00674483 -0.16632  0
0.0312268 -0.156538  0
0.0584878 -0.160519  0
0.0947518 -0.157087  0
0.135417 -0.144707  0
0.172588 -0.120992  0
0.205931 -0.102586  0
0.236031 -0.0718171  0
0.26048 -0.0337359  0
0.261434 0.0434181  0
0.249572 0.0791582  0
0.163897 0.218608  0
0.0475435 0.109344  0
0.0153388 0.0680707  0
0.070094 0.184619  0
0.0707479 0.0729044  0
0.00373408 0.0337628  0
-0.0108312 0.012385  0
-0.00624194 0.00430097  0
0 0  0
0 0  0
0 0  0
0 0  0
-0.0340323 -0.000207181  0
-0.0880758 -0.000207181  0
-0.18266 0.0198041  0
-0.24677 0.104126  0
-0.236307 0.0236385  0
-0.256768 0.0352694  0
-0.268109 -0.0175293  0
-0.251146 -0.0395156  0
-0.237529 -0.0601233  0
-0.215168 -0.104853  0
-0.176831 -0.143795  0
-0.135331 -0.163085  0
-0.0970901 -0.174706  0
-0.0675756 -0.163604  0
-0.0464904 -0.169438  0
-0.0288741 -0.167326  0
-0.0105118 -0.189445  0
0.0103683 -0.189612  0
0.0284433 -0.175072  0
0.0526017 -0.192675  0
0.0913761 -0.199241  0
0.140021 -0.191133  0
0.184438 -0.155424  0
0.225802 -0.142132  0
0.264685 -0.100519  0
0.304759 -0.0688245  0
0.283669 0.0992021  0
0.238413 0.0808882  0
0.239685 0.191822  0
0.164886 0.0707742  0
0.0520776 0.0340354  0
0.00766941 0.0340354  0
0 0  0
0 0  0
0 0  0
0 0  0
0 0  0
0 0  0
0 0  0
0 0  0
0 0  0
0 0  0
0 0  0
-0.118153 0.0118193  0
-0.200549 0.0397694  0
-0.164792 0.0559003  0
-0.165748 -0.0255083  0
-0.170829 -0.0430432  0
-0.173825 -0.0668484  0
-0.157015 -0.136933  0
-0.124732 -0.181961  0
-0.0935189 -0.197256  0
-0.0678612 -0.204059  0
-0.045201 -0.186052  0
-0.0261523 -0.186751  0
-0.0103471 -0.183062  0
0.000933896 -0.202979  0
0.00778356 -0.203435  0
0.023124 -0.194292  0
0.0470125 -0.22113  0
0.0758956 -0.238072  0
0.109849 -0.234525  0
0.146978 -0.193205  0
0.183993 -0.182356  0
0.212357 -0.12716  0
0.223281 -0.0928055  0
0.262632 0.0258261  0
0.270198 0.0404441  0
0.119207 0.0404441  0
0 0  0
0 0  0
0 0  0
0 0  0
0 0  0
0 0  0
0 0  0
0 0  0
0 0  0
0 0  0
0 0  0
0 0  0
0 0  0
0 0  0
0 0  0
-0.0823961 0.0279502  0
-0.124566 0.0279502  0
-0.118339 -0.0122761  0
-0.149116 -0.0194591  0
-0.116977 -0.0339891  0
-0.091722 -0.0763067  0
-0.0951055 -0.0992817  0
-0.0852472 -0.105933  0
-0.0749617 -0.107553  0
-0.0556606 -0.0988324  0
-0.0292689 -0.0970938  0
-0.00449535 -0.0957157  0
0.00890461 -0.102946  0
0.00768557 -0.103686  0
0.0362456 -0.102848  0
0.0713997 -0.116808  0
0.0851281 -0.127235  0
0.0890037 -0.126041  0
0.120836 -0.10639  0
0.146645 -0.0998984  0
0.158861 -0.0690418  0
0.200641 -0.0464027  0
0.11164 -0.0464027  0
0 0  0
0 0  0
0 0  0
0 0  0
0 0  0
0 0  0
0 0  0
0 0  0
0 0  0
0 0  0
0 0  0
0 0  0
0 0  0
0 0  0
0 0  0
0 0  0
0 0  0
0 0  0
0 0  0
0 0  0
0 0  0
0 0  0
0 0  0
0 0  0
0 0  0
0 0  0
0 0  0
0 0  0
0 0  0
0 0  0
0 0  0
0 0  0
0 0  0
0 0  0
0 0  0
0 0  0
0 0  0
0 0  0
0 0  0
0 0  0
0 0  0
0 0  0
0 0  0
0 0  0
0 0  0
0 0  0
0 0  0
0 0  0
0 0  0
0 0  0
0 0  0
0 0  0
0 0  0
0 0  0
0 0  0
0 0  0
0 0  0
0 0  0
0 0  0
0 0  0
0 0  0
0 0  0
0 0  0
0 0  0
0 0  0
0 0  0
0 0  0
0 0  0
0 0  0
0 0  0
0 0  0
0 0  0
0 0  0
0 0  0
0 0  0
0 0  0
0 0  0
0 0  0
0 0  0
0 0  0
0 0  0
0 0  0
0 0  0
0 0  0
0 0  0
0 0  0
0 0  0
0 0  0
0 0  0
0 0  0
0 0  0
0 0  0
0 0  0
0 0  0
0 0  0
0 0  0
0 0  0
0 0  0
0 0  0
0 0  0
0 0  0
0 0  0
0 0  0
0 0  0
0 0  0
0 0  0
0 0  0
0 0  0
0 0  0
0 0  0
0 0  0
0 0  0
0 0  0
0 0  0
0 0  0
0 0  0
0 0  0
0 0  0
0 0  0
0 0  0
0 0  0
0 0  0
0 0  0
0 0  0
0 0  0
0 0  0
0 0  0
0 0  0
0 0  0
0 0  0
0 0  0
0 0  0
0 0  0
0 0  0
0 0  0
0 0  0
0 0  0
0 0  0
0 0  0
0 0  0
0 0  0
0 0  0
0 0  0
0 0  0
0 0  0
0 0  0
0 0  0
0 0  0
0 0  0
0 0  0
0 0  0
0 0  0
0 0  0
0 0  0
0 0  0
0 0  0
0 0  0
0 0  0
0 0  0
0 0  0
0 0  0
0 0  0
0 0  0
0 0  0
0 0  0
0 0  0
0 0  0
0 0  0
0 0  0
0 0  0
0 0  0
0 0  0
0 0  0
0 0  0
0 0  0
0 0  0
0 0  0
0 0  0
0 0  0
0 0  0
0 0  0
0 0  0
0 0  0
0 0  0
0 0  0
0 0  0
0 0  0
0 0  0
0 0  0
0 0  0
0 0  0
0 0  0
0 0  0
0 0  0
0 0  0
0 0  0
0 0  0
0 0  0
0 0  0
0 0  0
0 0  0
0 0  0
0 0  0
0 0  0
0 0  0
0 0  0
0 0  0
0 0  0
0 0  0
0 0  0
0 0  0
0 0  0
0 0  0
0 0  0
0 0  0
0 0  0
0 0  0
0 0  0
0 0  0
0 0  0
0 0  0
0 0  0
0 0  0
0 0  0
0 0  0
0 0  0
0 0  0
0 0  0
0 0  0
0 0  0
0 0  0
0 0  0
0 0  0
0 0  0
0 0  0
0 0  0
0 0  0
0 0  0
0 0  0
0 0  0
0 0  0
0 0  0
0 0  0
0 0  0
0 0  0
0 0  0
0 0  0
0 0  0
0 0  0
0 0  0
0 0  0
0 0  0
0 0  0
0 0  0
0 0  0
0 0  0
0 0  0
0 0  0
0 0  0
0 0  0
0 0  0
0 0  0
0 0  0
0 0  0
0 0  0
0 0  0
0 0  0
0 0  0
0 0  0
0 0  0
0 0  0
0 0  0
0 0  0
0 0  0
0 0  0
0 0  0
0 0  0
0 0  0
0 0  0
0 0  0
0 0  0
0 0  0
0 0  0
0 0  0
0 0  0
0 0  0
0 0  0
0 0  0
0 0  0
0 0  0
0 0  0
0 0  0
0 0  0
0 0  0
0 0  0
0 0  0
0 0  0
0 0  0
0 0  0
0 0  0
0 0  0
0 0  0
0 0  0
0 0  0
0 0  0
0 0  0
0 0  0
0 0  0
0 0  0
0 0  0
0 0  0
0 0  0
0 0  0
0 0  0
0 0  0
0 0  0
0 0  0
0 0  0
0 0  0
0 0  0
0 0  0
0 0  0
0 0  0
0 0  0
0 0  0
0 0  0
0 0  0
0 0  0
0 0  0
0 0  0
0 0  0
0 0  0
0 0  0
0 0  0
0 0  0
0 0  0
0 0  0
0 0  0
0 0  0
0 0  0
0 0  0
0 0  0
0 0  0
0 0  0
0 0  0
0 0  0
0 0  0
0 0  0
0 0  0
0 0  0
0 0  0
0 0  0
0 0  0
0 0  0
0 0  0
0 0  0
0 0  0
0 0  0
0 0  0
0 0  0
0 0  0
0 0  0
0 0  0
0 0  0
0 0  0
0 0  0
0 0  0
0 0  0
0 0  0
0 0  0
0 0  0
0 0  0
0 0  0
0 0  0
0 0  0
0 0  0
0 0  0
0 0  0
0 0  0
0 0  0
0 0  0
0 0  0
0 0  0
0 0  0
0 0  0
0 0  0
0 0  0
0 0  0
0 0  0
0 0  0
0 0  0
0 0  0
0 0  0
0 0  0
0 0  0
0 0  0
0 0  0
0 0  0
0 0  0
0 0  0
0 0  0
0 0  0
0 0  0
0 0  0
0 0  0
0 0  0
0 0  0
0 0  0
0 0  0
0 0  0
0 0  0
0 0  0
0 0  0
0 0  0
0 0  0
0 0  0
0 0  0
0 0  0
0 0  0
0 0  0
0 0  0
0 0  0
0 0  0
0 0  0
0 0  0
0 0  0
0 0  0
0 0  0
0 0  0
0 0  0
0 0  0
0 0  0
0 0  0
0 0  0
0 0  0
0 0  0
0 0  0
0 0  0
0 0  0
0 0  0
0 0  0
0 0  0
0 0  0
0 0  0
0 0  0
0 0  0
0 0  0
0 0  0
0 0  0
0 0  0
0 0  0
0 0  0
0 0  0
0 0  0
0 0  0
0 0  0
0 0  0
0 0  0
0 0  0
0 0  0
0 0  0
0 0  0
0 0  0
0 0  0
0 0  0
0 0  0
0 0  0
0 0  0
0 0  0
0 0  0
0 0  0
0 0  0
0 0  0
0 0  0
0 0  0
0 0  0
0 0  0
0 0  0
0 0  0
0 0  0
0 0  0
0 0  0
0 0  0
0 0  0
0 0  0
0 0  0
0 0  0
0 0  0
0 0  0
0 0  0
0 0  0
0 0  0
0 0  0
0 0  0
0 0  0
0 0  0
0 0  0
0 0  0
0 0  0
0 0  0
0 0  0
0 0  0
0 0  0
0 0  0
0 0  0
0 0  0
0 0  0
0 0  0
0 0  0
0 0  0
0 0  0
0 0  0
0 0  0
0 0  0
0 0  0
0 0  0
0 0  0
0 0  0
0 0  0
0 0  0
0 0  0
0 0  0
0 0  0
0 0  0
0 0  0
0 0  0
0 0  0
0 0  0
0 0  0

SCALARS pressure double 1
LOOKUP_TABLE default
3.33084
3.33471
3.34256
3.35406
3.36879
3.38622
3.40573
3.42673
3.44858
3.47067
3.49245
3.5134
3.53308
3.55111
3.56718
3.58104
3.59249
3.60138
3.60762
3.61114
3.61191
3.60993
3.60528
3.59802
3.58827
3.5762
3.56201
3.54599
3.52844
3.50977
3.49041
3.47086
3.45166
3.43338
3.41657
3.40177
3.38943
3.37994
3.37353
3.37032
3.11857
3.12264
3.13082
3.14279
3.15808
3.17611
3.19627
3.21791
3.24038
3.26305
3.28535
3.30676
3.32683
3.34517
3.36149
3.37554
3.38713
3.39612
3.40242
3.40597
3.40672
3.40472
3.4
3.39263
3.38274
3.37047
3.35603
3.3397
3.32178
3.30268
3.28283
3.26275
3.24301
3.22417
3.20683
3.19155
3.17881
3.16899
3.16237
3.15905
2.89412
2.89856
2.90744
2.92035
2.93677
2.95605
2.97751
3.00045
3.02417
3.04801
3.07136
3.09368
3.11451
3.13348
3.15029
3.1647
3.17656
3.18573
3.19213
3.19571
3.19645
3.19437
3.18951
3.18194
3.17175
3.15909
3.14416
3.1272
3.10853
3.08855
3.06772
3.04657
3.02569
3.00572
2.98729
2.97102
2.95743
2.94696
2.93988
2.93634
2.65715
2.66219
2.67217
2.68658
2.70476
2.72599
2.74947
2.77442
2.80007
2.82569
2.85063
2.87432
2.89629
2.91617
2.93369
2.94863
2.96085
2.97026
2.97681
2.98044
2.98115
2.97895
2.97389
2.96602
2.95541
2.94219
2.92652
2.90863
2.88884
2.86752
2.84517
2.82236
2.79973
2.778
2.75787
2.74005
2.72514
2.71365
2.70587
2.70197
2.40708
2.41301
2.42461
2.44119
2.46189
2.48585
2.51216
2.5399
2.56821
2.59627
2.62337
2.6489
2.67238
2.69345
2.71186
2.72746
2.74013
2.74983
2.75653
2.76021
2.76087
2.75853
2.75324
2.745
2.73387
2.71993
2.70331
2.6842
2.6629
2.63978
2.61535
2.59023
2.56516
2.54094
2.51841
2.49841
2.48167
2.46875
2.46001
2.45564
2.14304
2.1503
2.16424
2.18381
2.20793
2.23555
2.26559
2.29701
2.3288
2.36003
2.38989
2.41774
2.44308
2.46559
2.48505
2.50138
2.51454
2.52453
2.53137
2.53509
2.5357
2.53321
2.52766
2.51902
2.50731
2.49254
2.47479
2.4542
2.43101
2.40558
2.37846
2.35033
2.32201
2.29447
2.26873
2.24581
2.22662
2.21184
2.20188
2.1969
1.86368
1.87302
1.89035
1.91401
1.94262
1.97497
2.00983
2.04594
2.08214
2.11734
2.15064
2.1813
2.20883
2.23295
2.25355
2.27062
2.28424
2.29447
2.30142
2.30515
2.30569
2.30305
2.29727
2.28826
2.27596
2.26032
2.24133
2.21902
2.19358
2.16535
2.13486
2.10287
2.07038
2.03851
2.00854
1.98179
1.95945
1.94236
1.93092
1.92523
1.56691
1.57978
1.6022
1.63133
1.66565
1.70402
1.74495
1.78694
1.82864
1.86876
1.9062
1.94015
1.97014
1.99599
2.01771
2.03544
2.0494
2.05977
2.06674
2.07042
2.07089
2.06814
2.06219
2.05289
2.0401
2.02364
2.00336
1.97919
1.95119
1.91962
1.88501
1.84822
1.8104
1.77297
1.7375
1.70576
1.67944
1.65957
1.64647
1.64002
1.24901
1.26884
1.29922
1.33542
1.37666
1.42255
1.47108
1.52036
1.56885
1.61499
1.65738
1.6951
1.72772
1.75524
1.77792
1.79611
1.81018
1.8205
1.82734
1.83091
1.8313
1.82852
1.82252
1.81311
1.80001
1.7829
1.76145
1.73539
1.70459
1.66915
1.62958
1.58684
1.54234
1.4978
1.45514
1.41679
1.38548
1.36251
1.34776
1.34062
0.90241
0.938518
0.98163
1.02603
1.07484
1.13034
1.18845
1.24658
1.30349
1.35706
1.40531
1.44717
1.48239
1.51133
1.53459
1.55283
1.56666
1.57663
1.58316
1.58653
1.58686
1.58414
1.57828
1.56903
1.55596
1.53855
1.51623
1.48845
1.45475
1.41497
1.36948
1.3194
1.26653
1.21304
1.16085
1.11323
1.07581
1.04978
1.03385
1.02635
0.510407
0.590653
0.651914
0.702628
0.75774
0.8272
0.897527
0.965921
1.03347
1.09644
1.15159
1.19772
1.23513
1.26484
1.28801
1.30568
1.31878
1.32803
1.33402
1.33708
1.33739
1.33485
1.32938
1.32067
1.30811
1.29096
1.26834
1.23932
1.2029
1.15838
1.10579
1.04673
0.983297
0.919031
0.854089
0.791687
0.747201
0.719406
0.703747
0.696716
0.0218724
0.244546
0.316793
0.363344
0.418026
0.514877
0.600028
0.677923
0.760009
0.835587
0.898638
0.948519
0.986947
1.01618
1.03819
1.05448
1.06621
1.07431
1.07951
1.08219
1.08251
1.08028
1.07546
1.06773
1.05634
1.04027
1.01827
0.988928
0.950405
0.900959
0.839869
0.769624
0.692213
0.617233
0.536072
0.443635
0.394357
0.369262
0.357001
0.351845
0
0.0305401
0.00165975
0.00904387
0.0251517
0.205602
0.301371
0.378366
0.485528
0.579304
0.650347
0.70181
0.738712
0.765339
0.784694
0.798601
0.808359
0.814872
0.819067
0.821258
0.821652
0.819826
0.815872
0.80958
0.800117
0.786184
0.76612
0.738092
0.698848
0.644542
0.572769
0.489165
0.388899
0.313148
0.219573
0.0336266
0.00743206
-0.00259211
-0.00590444
-0.0072218
0
0
0
0
0
-0.0227393
0.0108187
0.0354861
0.216635
0.337652
0.412742
0.460249
0.490988
0.511677
0.526512
0.53706
0.544373
0.548954
0.551988
0.553574
0.554077
0.552768
0.549718
0.54523
0.538352
0.527709
0.511422
0.487558
0.450711
0.392625
0.304229
0.212086
0.0412277
0.015949
-0.0145431
0
0
0
0
0
0
0
0
0
0
0
0
0
-0.00327486
0.132543
0.19391
0.226739
0.244205
0.254215
0.262537
0.268857
0.273399
0.275856
0.277842
0.278702
0.27958
0.278764
0.276246
0.273623
0.269561
0.263292
0.253358
0.2386
0.212135
0.155889
0.0222432
-0.00304964
0
0
0
0
0
0
0
0
0
0
0
0
0
0
0
0
0
-0.00347857
0.000441617
0.00222412
-0.000222073
-0.00804075
-0.00843366
-0.00735654
-0.00555537
-0.00580924
-0.00366434
-0.00418898
-0.00142696
-0.00190941
-0.00566269
-0.0062397
-0.00832611
-0.00892053
-0.00972291
-0.00892397
-0.00529232
-0.00527457
0
0
0
0
0
0
0
0
0
0
0
0
0
0
0
0
0
0
0
0
0
0
0
0
0
0
0
0
0
0
0
0
0
0
0
0
0
0
0
0
0
0
0
0
0
0
0
0
0
0
0
0
0
0
0
0
0
0
0
0
0
0
0
0
0
0
0
0
0
0
0
0
0
0
0
0
0
0
0
0
0
0
0
0
0
0
0
0
0
0
0
0
0
0
0
0
0
0
0
0
0
0
0
0
0
0
0
0
0
0
0
0
0
0
0
0
0
0
0
0
0
0
0
0
0
0
0
0
0
0
0
0
0
0
0
0
0
0
0
0
0
0
0
0
0
0
0
0
0
0
0
0
0
0
0
0
0
0
0
0
0
0
0
0
0
0
0
0
0
0
0
0
0
0
0
0
0
0
0
0
0
0
0
0
0
0
0
0
0
0
0
0
0
0
0
0
0
0
0
0
0
0
0
0
0
0
0
0
0
0
0
0
0
0
0
0
0
0
0
0
0
0
0
0
0
0
0
0
0
0
0
0
0
0
0
0
0
0
0
0
0
0
0
0
0
0
0
0
0
0
0
0
0
0
0
0
0
0
0
0
0
0
0
0
0
0
0
0
0
0
0
0
0
0
0
0
0
0
0
0
0
0
0
0
0
0
0
0
0
0
0
0
0
0
0
0
0
0
0
0
0
0
0
0
0
0
0
0
0
0
0
0
0
0
0
0
0
0
0
0
0
0
0
0
0
0
0
0
0
0
0
0
0
0
0
0
0
0
0
0
0
0
0
0
0
0
0
0
0
0
0
0
0
0
0
0
0
0
0
0
0
0
0
0
0
0
0
0
0
0
0
0
0
0
0
0
0
0
0
0
0
0
0
0
0
0
0
0
0
0
0
0
0
0
0
0
0
0
0
0
0
0
0
0
0
0
0
0
0
0
0
0
0
0
0
0
0
0
0
0
0
0
0
0
0
0
0
0
0
0
0
0
0
0
0
0
0
0
0
0
0
0
0
0
0
0
0
0
0
0
0
0
0
0
0
0
0
0
0
0
0
0
0
0
0
0
0
0
0
0
0
0
0
0
0
0
0
0
0
0
0
0
0
0
0
0
0
0
0
0
0
0
0
0
0
0
0
0
0
0
0
0
0
0
0
0
0
0
0
0
0
0
0
0
0
0
0
0
0
0
0
0
0
0
0
0
0
0
0
0
0
0
0
0
0
0
0
0
0
0
0
0
0
0
0
0
0
0
0
0
0
0
0
0
0
0
0
0
0
0
0
0
0
0
0
0
0
0
0
0
SCALARS rhs double 1
LOOKUP_TABLE default
-5.30212
-5.25508
-5.25414
-5.25369
-5.25346
-5.25337
-5.2534
-5.25357
-5.25385
-5.25421
-5.25465
-5.25516
-5.25573
-5.25638
-5.25706
-5.25782
-5.25858
-5.25932
-5.25983
-5.26002
-5.2604
-5.25947
-5.25936
-5.25884
-5.25805
-5.25714
-5.25619
-5.25527
-5.25433
-5.2534
-5.25251
-5.25164
-5.25081
-5.2501
-5.24967
-5.24975
-5.25063
-5.25238
-5.25459
-5.25751
-0.253715
-0.208994
-0.208668
-0.208596
-0.208475
-0.208369
-0.208291
-0.208209
-0.208162
-0.208171
-0.208228
-0.208363
-0.208553
-0.208795
-0.209159
-0.209541
-0.210011
-0.210337
-0.210635
-0.211151
-0.210744
-0.21056
-0.210256
-0.210122
-0.209589
-0.209114
-0.208613
-0.20813
-0.207744
-0.207367
-0.20701
-0.206677
-0.206385
-0.206169
-0.206172
-0.206691
-0.208044
-0.210302
-0.21297
-0.216153
-0.250008
-0.207575
-0.207275
-0.207223
-0.207154
-0.207069
-0.206981
-0.20693
-0.206907
-0.206919
-0.206992
-0.207146
-0.207355
-0.207652
-0.207972
-0.208427
-0.20877
-0.20924
-0.209734
-0.209792
-0.209925
-0.209233
-0.209154
-0.208888
-0.208336
-0.207762
-0.207261
-0.206769
-0.206322
-0.205945
-0.205595
-0.205256
-0.204942
-0.204722
-0.20472
-0.205202
-0.206485
-0.208649
-0.211217
-0.214278
-0.246065
-0.206388
-0.206171
-0.206154
-0.206107
-0.206038
-0.205977
-0.205931
-0.205923
-0.205964
-0.206045
-0.206217
-0.206491
-0.206759
-0.207165
-0.207507
-0.208051
-0.208534
-0.209007
-0.209146
-0.209236
-0.208394
-0.208334
-0.207968
-0.20734
-0.206706
-0.206111
-0.2056
-0.205129
-0.204708
-0.204333
-0.203986
-0.203653
-0.203397
-0.203348
-0.203751
-0.204913
-0.206931
-0.209365
-0.212264
-0.241689
-0.205304
-0.205158
-0.205186
-0.205147
-0.205082
-0.205021
-0.204983
-0.204986
-0.205033
-0.205132
-0.20535
-0.205633
-0.205962
-0.2063
-0.206814
-0.207327
-0.208004
-0.208323
-0.208723
-0.208606
-0.207606
-0.207572
-0.207091
-0.206328
-0.205619
-0.204965
-0.204371
-0.203858
-0.2034
-0.202983
-0.202589
-0.202199
-0.201874
-0.201696
-0.201907
-0.202846
-0.20466
-0.206962
-0.20968
-0.23724
-0.204575
-0.204508
-0.204504
-0.204428
-0.204328
-0.204229
-0.204167
-0.204158
-0.204205
-0.204323
-0.204566
-0.204907
-0.20522
-0.205641
-0.206167
-0.206835
-0.207426
-0.207957
-0.208255
-0.208138
-0.206844
-0.206835
-0.206233
-0.205372
-0.204548
-0.203826
-0.203166
-0.202568
-0.20204
-0.201564
-0.201097
-0.200581
-0.200109
-0.199624
-0.199447
-0.199985
-0.201523
-0.203753
-0.20632
-0.233626
-0.204995
-0.20489
-0.204602
-0.204277
-0.204022
-0.203807
-0.203639
-0.203562
-0.203595
-0.20372
-0.204028
-0.20443
-0.204767
-0.205239
-0.205787
-0.206483
-0.207035
-0.207658
-0.207836
-0.20766
-0.206108
-0.206092
-0.205429
-0.204514
-0.203642
-0.202828
-0.202083
-0.201385
-0.200756
-0.200196
-0.199639
-0.198997
-0.198142
-0.197111
-0.19626
-0.196126
-0.197295
-0.19958
-0.202115
-0.233583
-0.20911
-0.208552
-0.206814
-0.205415
-0.20468
-0.204152
-0.203673
-0.203403
-0.203383
-0.203534
-0.204067
-0.204562
-0.204991
-0.205445
-0.206004
-0.20647
-0.206999
-0.20736
-0.207421
-0.207096
-0.205451
-0.205342
-0.20489
-0.204033
-0.203195
-0.202334
-0.201472
-0.200651
-0.199927
-0.199326
-0.198739
-0.19777
-0.196389
-0.194689
-0.19289
-0.191723
-0.192389
-0.194902
-0.197647
-0.245395
-0.225524
-0.223731
-0.215409
-0.209369
-0.207167
-0.206033
-0.2047
-0.203877
-0.203786
-0.204125
-0.205323
-0.206063
-0.206676
-0.207157
-0.20746
-0.20751
-0.207529
-0.207337
-0.207042
-0.2066
-0.205118
-0.204953
-0.205171
-0.204666
-0.20401
-0.203187
-0.202271
-0.20139
-0.200706
-0.200311
-0.199658
-0.198067
-0.196432
-0.194211
-0.191573
-0.187896
-0.18872
-0.192164
-0.195428
-0.289814
-0.279458
-0.277249
-0.242709
-0.218186
-0.212175
-0.210673
-0.207088
-0.204784
-0.204812
-0.205946
-0.208963
-0.210261
-0.211372
-0.211857
-0.2115
-0.210558
-0.209269
-0.208071
-0.207162
-0.206811
-0.205765
-0.205862
-0.207465
-0.207833
-0.207745
-0.207251
-0.206675
-0.206272
-0.206313
-0.206844
-0.203399
-0.203446
-0.2012
-0.199686
-0.19815
-0.190368
-0.190165
-0.194474
-0.197801
-0.401008
-0.417752
-0.401283
-0.294997
-0.225954
-0.218405
-0.218274
-0.209209
-0.204415
-0.205728
-0.210321
-0.21584
-0.219148
-0.221265
-0.2215
-0.219684
-0.216465
-0.212813
-0.210185
-0.208655
-0.209161
-0.208486
-0.209439
-0.213368
-0.215636
-0.217028
-0.217623
-0.218699
-0.220812
-0.224273
-0.220845
-0.222103
-0.219424
-0.21286
-0.221033
-0.23516
-0.20153
-0.197957
-0.204205
-0.207282
4.69167
-0.450771