# vtk DataFile Version 4.0
Nusif Fluid VTK output
ASCII
DATASET STRUCTURED_POINTS
DIMENSIONS 40 30 1
ORIGIN 0 0 0 
SPACING 0.2 0.2 1
POINT_DATA 1200 

VECTORS velocity double
0.0065583 -0.00764586  0
0.0196348 -0.0075463  0
0.0324741 -0.00734741  0
0.0448166 -0.00704581  0
0.0564518 -0.00663659  0
0.0671587 -0.00611409  0
0.0767055 -0.00547332  0
0.0848532 -0.00471207  0
0.0913639 -0.0038334  0
0.0960131 -0.00284802  0
0.0986076 -0.00177635  0
0.0990051 -0.000649054  0
0.0971341 0.0004941  0
0.0930083 0.00160714  0
0.0867352 0.00264275  0
0.0785124 0.00355782  0
0.0686145 0.00431858  0
0.0573716 0.00490334  0
0.0451459 0.0053018  0
0.0323126 0.00551094  0
0.0192508 0.00553027  0
0.00634112 0.00535867  0
-0.00603263 0.00499393  0
-0.0174837 0.0044355  0
-0.027631 0.00368955  0
-0.0361182 0.00277465  0
-0.0426395 0.00172284  0
-0.0469641 0.00057706  0
-0.0489531 -0.000613668  0
-0.0485668 -0.00179918  0
-0.045863 -0.00293219  0
-0.0409906 -0.00396867  0
-0.0341912 -0.00486022  0
-0.025828 -0.00553319  0
-0.0164746 -0.00585127  0
-0.00706946 -0.00558553  0
0.000954867 -0.004471  0
0.00585771 -0.00246444  0
0.00634618 -5.68893e-05  0
0.0026933 0.0016768  0
0.00665812 -0.0229767  0
0.0199339 -0.0226813  0
0.0329757 -0.0220894  0
0.045529 -0.021191  0
0.0573855 -0.0199703  0
0.0683242 -0.018409  0
0.0781099 -0.0164901  0
0.0864958 -0.0142045  0
0.0932307 -0.0115587  0
0.0980729 -0.00858311  0
0.100809 -0.00533843  0
0.101278 -0.00191758  0
0.0993934 0.00155698  0
0.0951608 0.00494256  0
0.088691 0.00809172  0
0.0801949 0.0108703  0
0.0699679 0.0131742  0
0.0583628 0.0149394  0
0.0457598 0.0161385  0
0.0325445 0.0167669  0
0.0190985 0.0168261  0
0.0058014 0.0163132  0
-0.00696177 0.0152193  0
-0.0187951 0.0135369  0
-0.0292982 0.01128  0
-0.0380897 0.00850345  0
-0.0448405 0.00530558  0
-0.0493032 0.00181985  0
-0.0513323 -0.00180125  0
-0.050892 -0.00540229  0
-0.048053 -0.00883726  0
-0.0429845 -0.0119709  0
-0.0359534 -0.0146563  0
-0.0273503 -0.0166721  0
-0.0177728 -0.0176129  0
-0.00817161 -0.0168007  0
3.06639e-05 -0.0134534  0
0.00512175 -0.00744734  0
0.00584955 -0.000261919  0
0.00251415 0.0048984  0
0.00685406 -0.038539  0
0.0205228 -0.0380543  0
0.0339656 -0.0370816  0
0.0469376 -0.0356031  0
0.0592362 -0.0335907  0
0.0706416 -0.0310089  0
0.0809131 -0.0278222  0
0.0897881 -0.0240067  0
0.0969888 -0.0195644  0
0.102237 -0.0145392  0
0.105277 -0.00902952  0
0.105906 -0.00319386  0
0.104002 0.00275307  0
0.0995555 0.00855667  0
0.0926829 0.0139515  0
0.0836245 0.0186966  0
0.0727212 0.0226098  0
0.0603749 0.0255869  0
0.0470048 0.0275957  0
0.0330166 0.0286445  0
0.0187949 0.0287473  0
0.0047143 0.0279006  0
-0.00884201 0.0260819  0
-0.0214597 0.0232555  0
-0.0326958 0.0194302  0
-0.0421152 0.0146934  0
-0.0493374 0.0092174  0
-0.0540798 0.00324116  0
-0.0561833 -0.00296232  0
-0.0556208 -0.00911688  0
-0.0524906 -0.0149654  0
-0.0470034 -0.0202724  0
-0.0394771 -0.0247867  0
-0.0303568 -0.0281397  0
-0.0202888 -0.0296658  0
-0.0102513 -0.0282617  0
-0.00165837 -0.0226631  0
0.00382124 -0.0126839  0
0.00499952 -0.000807001  0
0.00221405 0.0076889  0
0.00714275 -0.0545779  0
0.021391 -0.0539127  0
0.0354266 -0.0525773  0
0.04902 -0.0505469  0
0.06198 -0.047778  0
0.0740931 -0.0442112  0
0.0851127 -0.0397808  0
0.0947543 -0.0344333  0
0.102699 -0.0281508  0
0.10861 -0.0209781  0
0.112159 -0.0130458  0
0.113071 -0.00458274  0
0.111165 0.00408712  0
0.106402 0.0125687  0
0.0989055 0.0204445  0
0.0889666 0.0273374  0
0.0770031 0.0329723  0
0.0634993 0.0372108  0
0.0489385 0.040039  0
0.0337573 0.0415065  0
0.0183408 0.0416591  0
0.00304905 0.0404965  0
-0.0117428 0.0379692  0
-0.0255925 0.0339702  0
-0.0379842 0.0284775  0
-0.0483909 0.0216058  0
-0.0563472 0.0136167  0
-0.0615131 0.00488272  0
-0.0637097 -0.00417165  0
-0.0629258 -0.0131224  0
-0.0593044 -0.0215805  0
-0.0531227 -0.0291956  0
-0.0447782 -0.0356042  0
-0.0348007 -0.0402903  0
-0.0239127 -0.0423422  0
-0.0131433 -0.0402631  0
-0.00391055 -0.0323587  0
0.00216159 -0.0184114  0
0.00395529 -0.00192276  0
0.00185342 0.00982081  0
0.00751894 -0.0712729  0
0.0225221 -0.0704379  0
0.0373295 -0.0687654  0
0.0517351 -0.0662266  0
0.06557 -0.0627607  0
0.0786368 -0.0582742  0
0.0906887 -0.0526539  0
0.101416 -0.0457924  0
0.110443 -0.0376259  0
0.117346 -0.0281772  0
0.121687 -0.0175973  0
0.123075 -0.0061912  0
0.121235 0.00558226  0
0.116073 0.0171399  0
0.107728 0.0278559  0
0.0965639 0.0371708  0
0.0831104 0.0446973  0
0.0679707 0.0502705  0
0.0517207 0.0539313  0
0.0348425 0.0558145  0
0.0177239 0.0560269  0
0.000701501 0.0545831  0
-0.0158619 0.0513778  0
-0.0314758 0.0461646  0
-0.045511 0.038849  0
-0.0573024 0.029571  0
-0.0662649 0.0187084  0
-0.0719814 0.00681098  0
-0.0742499 -0.00549789  0
-0.0730864 -0.0176071  0
-0.0687004 -0.0289673  0
-0.0614645 -0.0390913  0
-0.0518909 -0.0474919  0
-0.0406299 -0.0535068  0
-0.028515 -0.0559947  0
-0.0166583 -0.0531031  0
-0.00650762 -0.0427688  0
0.000349778 -0.0247976  0
0.0028673 -0.0037146  0
0.00148711 0.011228  0
0.00797579 -0.0887912  0
0.0238927 -0.0877959  0
0.0396294 -0.085816  0
0.0550145 -0.0828298  0
0.0699205 -0.0787602  0
0.0841861 -0.0734673  0
0.0975789 -0.0667644  0
0.109767 -0.0584545  0
0.120304 -0.0483847  0
0.128644 -0.0365171  0
0.134192 -0.0230002  0
0.136381 -0.00822005  0
0.134785 0.00719375  0
0.129227 0.0223949  0
0.119857 0.0364626  0
0.107138 0.048595  0
0.0917313 0.05828  0
0.0743764 0.065329  0
0.0557692 0.0698763  0
0.036465 0.0721978  0
0.0168829 0.0724901  0
-0.00264308 0.0708137  0
-0.0217344 0.066947  0
-0.0397972 0.0604168  0
-0.0560327 0.0510118  0
-0.0696048 0.0389156  0
-0.079796 0.0246609  0
-0.0861103 0.00903202  0
-0.0883318 -0.00708692  0
-0.0865214 -0.0228505  0
-0.0809783 -0.0375123  0
-0.0722042 -0.0504161  0
-0.0608692 -0.0609361  0
-0.0477887 -0.068265  0
-0.0339509 -0.0710505  0
-0.020591 -0.0671257  0
-0.00922098 -0.0541288  0
-0.00140969 -0.0319682  0
0.00187434 -0.00620749  0
0.00116465 0.0119489  0
0.00850431 -0.107284  0
0.0254693 -0.106127  0
0.042254 -0.103865  0
0.058739 -0.100509  0
0.0748705 -0.0959748  0
0.0905596 -0.0900619  0
0.105618 -0.0824746  0
0.119709 -0.0728742  0
0.13231 -0.0609539  0
0.142721 -0.0465487  0
0.150119 -0.0297626  0
0.153685 -0.0110612  0
0.152758 0.00871  0
0.147022 0.0283259  0
0.136632 0.0464432  0
0.122159 0.0619594  0
0.104356 0.0742782  0
0.0840415 0.0831518  0
0.062046 0.0888078  0
0.0390579 0.0917099  0
0.0156301 0.0921389  0
-0.00778559 0.0902573  0
-0.0306456 0.0856051  0
-0.0521045 0.0774305  0
-0.0711336 0.0654124  0
-0.0867576 0.0498604  0
-0.098198 0.0314965  0
-0.104931 0.0113915  0
-0.106767 -0.00924101  0
-0.103839 -0.0292879  0
-0.0965503 -0.0477607  0
-0.0855699 -0.0637767  0
-0.0717819 -0.0765537  0
-0.0562201 -0.0851457  0
-0.0400736 -0.0880105  0
-0.0247428 -0.082713  0
-0.0118395 -0.0666718  0
-0.00293428 -0.0399989  0
0.00109779 -0.00935005  0
0.000928411 0.0121134  0
0.00908718 -0.126878  0
0.0271856 -0.125526  0
0.0450595 -0.122977  0
0.0626669 -0.11934  0
0.0800829 -0.114541  0
0.0973516 -0.108302  0
0.114384 -0.100173  0
0.130883 -0.08961  0
0.146273 -0.076054  0
0.159674 -0.0591031  0
0.169965 -0.0387402  0
0.175969 -0.0154951  0
0.176643 0.00955495  0
0.171404 0.0346154  0
0.160381 0.0577242  0
0.144259 0.077432  0
0.123721 0.0933054  0
0.0994489 0.104868  0
0.0723749 0.112318  0
0.0434223 0.116297  0
0.0135196 0.117038  0
-0.0164032 0.114853  0
-0.0451839 0.108806  0
-0.0713858 0.0980458  0
-0.093729 0.0823246  0
-0.111318 0.0623165  0
-0.123569 0.0388853  0
-0.130066 0.0133868  0
-0.130759 -0.012554  0
-0.125891 -0.0376189  0
-0.115951 -0.0605068  0
-0.101826 -0.0799848  0
-0.0847026 -0.0951073  0
-0.0658854 -0.104822  0
-0.046792 -0.107426  0
-0.0290064 -0.100266  0
-0.0142566 -0.0806239  0
-0.00412986 -0.0489308  0
0.00060243 -0.0130347  0
0.000800967 0.0119168  0
0.00967212 -0.147629  0
0.0288601 -0.145977  0
0.0476865 -0.143074  0
0.0662303 -0.13924  0
0.0847823 -0.134453  0
0.103611 -0.12833  0
0.122816 -0.120223  0
0.142238 -0.10932  0
0.161344 -0.0946774  0
0.179082 -0.0754556  0
0.193952 -0.0513855  0
0.204313 -0.0230494  0
0.208422 0.00849135  0
0.205038 0.0404674  0
0.194213 0.0698849  0
0.176939 0.0948311  0
0.153557 0.115991  0
0.124084 0.132091  0
0.0893904 0.143025  0
0.0506764 0.149419  0
0.00967635 0.150981  0
-0.031307 0.147978  0
-0.0694317 0.138749  0
-0.102131 0.123167  0
-0.12801 0.101587  0
-0.146833 0.0756277  0
-0.158753 0.0459038  0
-0.163639 0.0139114  0
-0.161803 -0.0180629  0
-0.153708 -0.0489144  0
-0.139785 -0.076917  0
-0.121215 -0.100114  0
-0.0996821 -0.11748  0
-0.0768098 -0.127984  0
-0.054194 -0.129818  0
-0.0335379 -0.120162  0
-0.0166419 -0.096221  0
-0.0051207 -0.0588288  0
0.000323529 -0.0171603  0
0.00076307 0.0115574  0
0.0100953 -0.169376  0
0.0299709 -0.167194  0
0.0492036 -0.163757  0
0.0680703 -0.159807  0
0.0872032 -0.155409  0
0.107214 -0.15005  0
0.128509 -0.142837  0
0.151252 -0.132705  0
0.175165 -0.118143  0
0.19905 -0.0974443  0
0.220907 -0.0699535  0
0.238739 -0.0365024  0
0.24932 0.00342666  0
0.249606 0.0448018  0
0.239663 0.0824904  0
0.221895 0.113437  0
0.195959 0.142873  0
0.160257 0.166552  0
0.115183 0.1845  0
0.061629 0.19638  0
0.00272281 0.200094  0
-0.0558244 0.194563  0
-0.107494 0.178124  0
-0.148374 0.153537  0
-0.17735 0.122238  0
-0.195821 0.0884376  0
-0.205648 0.0510063  0
-0.206875 0.0110867  0
-0.200645 -0.0271391  0
-0.187978 -0.0644357  0
-0.168526 -0.0986083  0
-0.143832 -0.125525  0
-0.116691 -0.144581  0
-0.0890966 -0.15519  0
-0.0626277 -0.155538  0
-0.0388813 -0.142686  0
-0.019569 -0.113747  0
-0.00633814 -0.0698969  0
3.26862e-05 -0.0217495  0
0.000749087 0.0111485  0
0.0099359 -0.191376  0
0.0292481 -0.188269  0
0.0475133 -0.184016  0
0.0653505 -0.180086  0
0.0838875 -0.176632  0
0.104215 -0.172996  0
0.127118 -0.167917  0
0.153297 -0.160374  0
0.183098 -0.148014  0
0.214832 -0.127017  0
0.245802 -0.0970304  0
0.275284 -0.060561  0
0.296133 -0.00776593  0
0.300363 0.0476581  0
0.28968 0.0964385  0
0.271993 0.131119  0
0.2446 0.174695  0
0.202797 0.208409  0
0.147155 0.239531  0
0.0748741 0.263357  0
-0.00879862 0.271869  0
-0.0905774 0.259288  0
-0.158085 0.22875  0
-0.208042 0.189921  0
-0.238875 0.141837  0
-0.254136 0.098743  0
-0.260046 0.0526107  0
-0.255667 0.00250109  0
-0.243983 -0.0402961  0
-0.227574 -0.0841852  0
-0.202229 -0.127488  0
-0.169589 -0.157812  0
-0.135587 -0.17727  0
-0.102747 -0.186771  0
-0.072335 -0.184674  0
-0.0454835 -0.167985  0
-0.0235383 -0.133542  0
-0.00814974 -0.0825584  0
-0.000416838 -0.027029  0
0.000739286 0.0107184  0
0.00837776 -0.211647  0
0.0243325 -0.207138  0
0.0389914 -0.201901  0
0.0535833 -0.198458  0
0.0698468 -0.196887  0
0.0895546 -0.196601  0
0.113504 -0.194987  0
0.142893 -0.192692  0
0.179195 -0.185617  0
0.217846 -0.163616  0
0.256164 -0.133534  0
0.302581 -0.103772  0
0.335564 -0.0222003  0
0.336256 0.0533588  0
0.316853 0.117009  0
0.302949 0.138321  0
0.277127 0.216887  0
0.228197 0.25313  0
0.170024 0.304802  0
0.0833623 0.353207  0
-0.0242813 0.369513  0
-0.125314 0.340633  0
-0.203794 0.289572  0
-0.265631 0.237072  0
-0.297539 0.153606  0
-0.302438 0.103311  0
-0.302776 0.0504693  0
-0.292965 -0.0133697  0
-0.279172 -0.053725  0
-0.267585 -0.102577  0
-0.240425 -0.165426  0
-0.198335 -0.198431  0
-0.156301 -0.216517  0
-0.117202 -0.223295  0
-0.0821299 -0.217465  0
-0.0517426 -0.196264  0
-0.0269526 -0.155831  0
-0.00933926 -0.0971046  0
-0.000230591 -0.0331569  0
0.00104279 0.0105843  0
0.00432571 -0.226297  0
0.0122687 -0.220245  0
0.0196689 -0.214678  0
0.0286869 -0.213114  0
0.0414315 -0.21506  0
0.0611002 -0.221624  0
0.0859768 -0.222608  0
0.117608 -0.229906  0
0.158872 -0.229781  0
0.19508 -0.198122  0
0.229585 -0.175662  0
0.296306 -0.178592  0
0.332305 -0.0192178  0
0.311724 0.0683607  0
0.272907 0.158322  0
0.285463 0.0954936  0
0.264702 0.302478  0
0.186704 0.290652  0
0.143947 0.364393  0
0.0669831 0.453423  0
-0.0363481 0.476454  0
-0.124656 0.419217  0
-0.196378 0.357373  0
-0.288284 0.319198  0
-0.327171 0.138459  0
-0.303495 0.0958655  0
-0.295338 0.0462805  0
-0.286116 -0.0320289  0
-0.283672 -0.0551188  0
-0.298057 -0.102204  0
-0.279917 -0.21492  0
-0.228028 -0.246739  0
-0.178575 -0.26352  0
-0.13082 -0.266972  0
-0.0876398 -0.255868  0
-0.0510229 -0.228693  0
-0.0227645 -0.180278  0
-0.0047098 -0.112153  0
0.00339407 -0.0391486  0
0.00257779 0.012291  0
-0.00294675 -0.229613  0
-0.00826469 -0.223402  0
-0.0106212 -0.220385  0
-0.007733 -0.223131  0
0.00150095 -0.230838  0
0.0248304 -0.252658  0
0.0490152 -0.244445  0
0.0783547 -0.272847  0
0.114173 -0.266778  0
0.133676 -0.218739  0
0.150781 -0.208561  0
0.162079 -0.225615  0
0.198149 -0.11738  0
0.213836 0.0394337  0
0.225136 0.120152  0
0.25682 0.0536721  0
0.206527 0.413444  0
0.149603 0.312701  0
0.116965 0.415831  0
0.0601404 0.53291  0
0.000378736 0.556244  0
-0.0530372 0.478292  0
-0.104402 0.419479  0
-0.177593 0.420283  0
-0.228992 0.125754  0
-0.227589 0.081586  0
-0.21456 0.037467  0
-0.215926 -0.0329775  0
-0.244073 -0.0303729  0
-0.299313 -0.0592329  0
-0.300425 -0.277781  0
-0.245601 -0.294411  0
-0.19729 -0.317431  0
-0.139654 -0.322273  0
-0.0817738 -0.305451  0
-0.0323444 -0.268981  0
0.00132851 -0.205745  0
0.0143899 -0.121625  0
0.0139713 -0.0411855  0
0.0061674 0.0191243  0
-0.012632 -0.215962  0
-0.0330827 -0.215121  0
-0.0420935 -0.221115  0
-0.0442779 -0.226918  0
-0.0408134 -0.243561  0
-0.0128259 -0.295063  0
0.00623941 -0.248148  0
0.00177417 -0.295922  0
0.036858 -0.288197  0
0.103369 -0.112273  0
0.151316 -0.109929  0
0.164957 -0.112807  0
0.0810396 -0.112807  0
0 0  0
0.12841 0.026836  0
0.0517877 0.026836  0
0.0736968 0.231868  0
0.160552 0.159666  0
0.0173129 0.502305  0
0.0141595 0.562773  0
0.0141595 0.584234  0
-0.00347879 0.543499  0
-0.0863105 0.223186  0
-0.0198348 0.23329  0
-0.0332426 0.065428  0
-0.177633 0.0375405  0
-0.164476 0.0154711  0
-0.195397 -0.0125434  0
-0.244491 -0.00505798  0
-0.23974 -0.168428  0
-0.229284 -0.312606  0
-0.219472 -0.326132  0
-0.188417 -0.366984  0
-0.132117 -0.38952  0
-0.0600442 -0.371978  0
0.00685002 -0.322599  0
0.0491543 -0.231925  0
0.0495729 -0.112744  0
0.0288015 -0.0326956  0
0.010019 0.0334006  0
-0.0211183 -0.184132  0
-0.0495599 -0.201886  0
-0.0535769 -0.225135  0
-0.0642965 -0.212852  0
-0.0764029 -0.25089  0
-0.0744833 -0.319545  0
-0.0102347 -0.281614  0
0.027894 -0.147961  0
0.000887085 -0.147961  0
0 0  0
0 0  0
0 0  0
0 0  0
0 0  0
0 0  0
0 0  0
0 0  0
0 0  0
0.00707976 0.281386  0
0.00342873 0.281386  0
0.00342873 0.292117  0
0.00707976 0.292117  0
0 0  0
0 0  0
0 0  0
0 0  0
0 0  0
0 0  0
0 0  0
-0.114642 -0.156303  0
-0.217615 -0.156303  0
-0.181661 -0.167972  0
-0.10857 -0.40688  0
-0.0597633 -0.425532  0
-0.0265763 -0.444092  0
0.0388534 -0.386628  0
0.0862976 -0.26146  0
0.0736411 -0.0738316  0
0.0314772 -0.0115358  0
0.00858557 0.0500963  0
-0.0207028 -0.144225  0
-0.0408761 -0.196999  0
-0.0403467 -0.229393  0
-0.0323428 -0.214109  0
-0.0160432 -0.126405  0
-0.0411153 -0.159773  0
-0.0372416 -0.159773  0
0 0  0
0 0  0
0 0  0
0 0  0
0 0  0
0 0  0
0 0  0
0 0  0
0 0  0
0 0  0
0 0  0
0 0  0
0 0  0
0 0  0
0 0  0
0 0  0
0 0  0
0 0  0
0 0  0
0 0  0
0 0  0
0 0  0
0 0  0
0 0  0
0 0  0
-0.0298816 -0.212766  0
-0.0308064 -0.451883  0
-0.00184955 -0.478234  0
0.00908717 -0.430762  0
0.0200239 -0.277615  0
0.0127008 -0.0220793  0
0.00537764 0.00181522  0
0.00268882 0.0604164  0
0.000752891 -0.125231  0
0.00150578 -0.198482  0
-0.0194204 -0.213938  0
-0.0201733 -0.114696  0
0 0  0
0 0  0
0 0  0
0 0  0
0 0  0
0 0  0
0 0  0
0 0  0
0 0  0
0 0  0
0 0  0
0 0  0
0 0  0
0 0  0
0 0  0
0 0  0
0 0  0
0 0  0
0 0  0
0 0  0
0 0  0
0 0  0
0 0  0
0 0  0
0 0  0
0 0  0
0 0  0
0 0  0
0 0  0
-0.000924773 -0.239117  0
-0.0201173 -0.239117  0
-0.0912225 -0.220849  0
-0.062018 -0.138808  0
0.0127008 0.000907608  0
-0.0252674 0.000907608  0
-0.0279562 0.0315526  0
0.037002 -0.062992  0
0.0377549 -0.0992411  0
0.000752891 -0.0992411  0
0 0  0
0 0  0
0 0  0
0 0  0
0 0  0
0 0  0
0 0  0
0 0  0
0 0  0
0 0  0
0 0  0
0 0  0
0 0  0
0 0  0
0 0  0
0 0  0
0 0  0
0 0  0
0 0  0
0 0  0
0 0  0
0 0  0
0 0  0
0 0  0
0 0  0
0 0  0
0 0  0
0 0  0
0 0  0
0 0  0
0 0  0
0 0  0
0 0  0
0 0  0
0 0  0
0 0  0
0 0  0
0 0  0
0 0  0
0 0  0
0 0  0
0 0  0
0 0  0
0 0  0
0 0  0
0 0  0
0 0  0
0 0  0
0 0  0
0 0  0
0 0  0
0 0  0
0 0  0
0 0  0
0 0  0
0 0  0
0 0  0
0 0  0
0 0  0
0 0  0
0 0  0
0 0  0
0 0  0
0 0  0
0 0  0
0 0  0
0 0  0
0 0  0
0 0  0
0 0  0
0 0  0
0 0  0
0 0  0
0 0  0
0 0  0
0 0  0
0 0  0
0 0  0
0 0  0
0 0  0
0 0  0
0 0  0
0 0  0
0 0  0
0 0  0
0 0  0
0 0  0
0 0  0
0 0  0
0 0  0
0 0  0
0 0  0
0 0  0
0 0  0
0 0  0
0 0  0
0 0  0
0 0  0
0 0  0
0 0  0
0 0  0
0 0  0
0 0  0
0 0  0
0 0  0
0 0  0
0 0  0
0 0  0
0 0  0
0 0  0
0 0  0
0 0  0
0 0  0
0 0  0
0 0  0
0 0  0
0 0  0
0 0  0
0 0  0
0 0  0
0 0  0
0 0  0
0 0  0
0 0  0
0 0  0
0 0  0
0 0  0
0 0  0
0 0  0
0 0  0
0 0  0
0 0  0
0 0  0
0 0  0
0 0  0
0 0  0
0 0  0
0 0  0
0 0  0
0 0  0
0 0  0
0 0  0
0 0  0
0 0  0
0 0  0
0 0  0
0 0  0
0 0  0
0 0  0
0 0  0
0 0  0
0 0  0
0 0  0
0 0  0
0 0  0
0 0  0
0 0  0
0 0  0
0 0  0
0 0  0
0 0  0
0 0  0
0 0  0
0 0  0
0 0  0
0 0  0
0 0  0
0 0  0
0 0  0
0 0  0
0 0  0
0 0  0
0 0  0
0 0  0
0 0  0
0 0  0
0 0  0
0 0  0
0 0  0
0 0  0
0 0  0
0 0  0
0 0  0
0 0  0
0 0  0
0 0  0
0 0  0
0 0  0
0 0  0
0 0  0
0 0  0
0 0  0
0 0  0
0 0  0
0 0  0
0 0  0
0 0  0
0 0  0
0 0  0
0 0  0
0 0  0
0 0  0
0 0  0
0 0  0
0 0  0
0 0  0
0 0  0
0 0  0
0 0  0
0 0  0
0 0  0
0 0  0
0 0  0
0 0  0
0 0  0
0 0  0
0 0  0
0 0  0
0 0  0
0 0  0
0 0  0
0 0  0
0 0  0
0 0  0
0 0  0
0 0  0
0 0  0
0 0  0
0 0  0
0 0  0
0 0  0
0 0  0
0 0  0
0 0  0
0 0  0
0 0  0
0 0  0
0 0  0
0 0  0
0 0  0
0 0  0
0 0  0
0 0  0
0 0  0
0 0  0
0 0  0
0 0  0
0 0  0
0 0  0
0 0  0
0 0  0
0 0  0
0 0  0
0 0  0
0 0  0
0 0  0
0 0  0
0 0  0
0 0  0
0 0  0
0 0  0
0 0  0
0 0  0
0 0  0
0 0  0
0 0  0
0 0  0
0 0  0
0 0  0
0 0  0
0 0  0
0 0  0
0 0  0
0 0  0
0 0  0
0 0  0
0 0  0
0 0  0
0 0  0
0 0  0
0 0  0
0 0  0
0 0  0
0 0  0
0 0  0
0 0  0
0 0  0
0 0  0
0 0  0
0 0  0
0 0  0
0 0  0
0 0  0
0 0  0
0 0  0
0 0  0
0 0  0
0 0  0
0 0  0
0 0  0
0 0  0
0 0  0
0 0  0
0 0  0
0 0  0
0 0  0
0 0  0
0 0  0
0 0  0
0 0  0
0 0  0
0 0  0
0 0  0
0 0  0
0 0  0
0 0  0
0 0  0
0 0  0
0 0  0
0 0  0
0 0  0
0 0  0
0 0  0
0 0  0
0 0  0
0 0  0
0 0  0
0 0  0
0 0  0
0 0  0
0 0  0
0 0  0
0 0  0
0 0  0
0 0  0
0 0  0
0 0  0
0 0  0
0 0  0
0 0  0
0 0  0
0 0  0
0 0  0
0 0  0
0 0  0
0 0  0
0 0  0
0 0  0
0 0  0
0 0  0
0 0  0
0 0  0
0 0  0
0 0  0
0 0  0
0 0  0
0 0  0
0 0  0
0 0  0
0 0  0
0 0  0
0 0  0
0 0  0
0 0  0
0 0  0
0 0  0
0 0  0
0 0  0
0 0  0
0 0  0
0 0  0
0 0  0
0 0  0
0 0  0
0 0  0
0 0  0
0 0  0
0 0  0
0 0  0
0 0  0
0 0  0
0 0  0
0 0  0
0 0  0
0 0  0
0 0  0
0 0  0
0 0  0
0 0  0
0 0  0
0 0  0
0 0  0
0 0  0
0 0  0
0 0  0
0 0  0
0 0  0
0 0  0
0 0  0
0 0  0
0 0  0
0 0  0
0 0  0
0 0  0
0 0  0
0 0  0
0 0  0
0 0  0
0 0  0
0 0  0
0 0  0
0 0  0
0 0  0
0 0  0
0 0  0
0 0  0
0 0  0
0 0  0
0 0  0
0 0  0
0 0  0
0 0  0
0 0  0
0 0  0
0 0  0
0 0  0
0 0  0
0 0  0
0 0  0
0 0  0
0 0  0
0 0  0
0 0  0
0 0  0
0 0  0
0 0  0
0 0  0
0 0  0
0 0  0
0 0  0
0 0  0
0 0  0
0 0  0
0 0  0
0 0  0
0 0  0
0 0  0
0 0  0
0 0  0
0 0  0
0 0  0
0 0  0
0 0  0
0 0  0
0 0  0
0 0  0
0 0  0
0 0  0
0 0  0
0 0  0
0 0  0
0 0  0
0 0  0
0 0  0
0 0  0
0 0  0
0 0  0
0 0  0
0 0  0
0 0  0
0 0  0
0 0  0
0 0  0
0 0  0
0 0  0
0 0  0
0 0  0

SCALARS pressure double 1
LOOKUP_TABLE default
2.64075
2.63944
2.63679
2.63293
2.62805
2.6224
2.61625
2.60991
2.6037
2.59792
2.59287
2.58879
2.58583
2.58411
2.58363
2.58433
2.58607
2.58869
2.59201
2.59586
2.60009
2.60462
2.60937
2.61433
2.61958
2.62517
2.63112
2.63745
2.64411
2.65103
2.65806
2.66504
2.67175
2.67799
2.68356
2.6883
2.69213
2.69503
2.697
2.69801
2.44342
2.44206
2.43929
2.43527
2.4302
2.42431
2.4179
2.4113
2.40483
2.39882
2.39356
2.38932
2.38626
2.3845
2.38405
2.38483
2.38669
2.38945
2.3929
2.39687
2.4012
2.40579
2.41056
2.41553
2.42079
2.42639
2.43238
2.43876
2.44552
2.45255
2.45972
2.46684
2.47371
2.48009
2.4858
2.49066
2.49459
2.49758
2.4996
2.50065
2.24882
2.24734
2.24434
2.23999
2.2345
2.22814
2.22121
2.21406
2.20706
2.20055
2.19487
2.19029
2.18703
2.1852
2.18481
2.18577
2.18788
2.19093
2.19467
2.19888
2.20339
2.2081
2.21292
2.21791
2.22317
2.22879
2.23483
2.24134
2.24828
2.25555
2.26301
2.27044
2.27762
2.28432
2.29031
2.29543
2.29957
2.30272
2.30486
2.30597
2.05704
2.05537
2.05202
2.04716
2.04102
2.0339
2.02615
2.01815
2.0103
2.00301
1.99666
1.99156
1.98796
1.98603
1.98577
1.98703
1.98958
1.99312
1.99732
2.00193
2.00672
2.0116
2.01645
2.02143
2.02666
2.03228
2.0384
2.04508
2.0523
2.05995
2.06785
2.07578
2.08348
2.09068
2.09713
2.10264
2.10712
2.11053
2.11285
2.11405
1.86822
1.8663
1.86245
1.85686
1.84981
1.84162
1.8327
1.82348
1.81443
1.80602
1.79869
1.79284
1.78877
1.7867
1.78665
1.78841
1.79165
1.79594
1.80086
1.80605
1.81123
1.8163
1.82114
1.82603
1.83115
1.83672
1.84289
1.84978
1.85739
1.86557
1.87412
1.88278
1.89123
1.89915
1.90626
1.91236
1.91732
1.9211
1.92368
1.925
1.68259
1.68033
1.6758
1.66924
1.66096
1.65133
1.64083
1.62996
1.61927
1.60932
1.60063
1.59371
1.58897
1.58674
1.58704
1.5896
1.59391
1.59935
1.60532
1.61133
1.61703
1.62225
1.62698
1.63161
1.63646
1.64184
1.64802
1.65515
1.66325
1.67216
1.68161
1.69128
1.70077
1.7097
1.71774
1.72464
1.73026
1.73454
1.73745
1.73895
1.50043
1.49772
1.49231
1.48448
1.47459
1.46308
1.45049
1.43744
1.42457
1.41255
1.40201
1.39358
1.38787
1.38542
1.3863
1.39012
1.39608
1.40324
1.41075
1.41792
1.42426
1.42953
1.43389
1.43797
1.44227
1.44726
1.45332
1.4607
1.46944
1.47932
1.49001
1.50107
1.51199
1.52231
1.5316
1.53957
1.54607
1.55101
1.55436
1.55607
1.32212
1.31883
1.3123
1.30285
1.29089
1.27695
1.26166
1.24575
1.23001
1.21524
1.20217
1.19159
1.1844
1.18158
1.1834
1.18924
1.19775
1.20747
1.21721
1.22601
1.23315
1.23817
1.24171
1.24474
1.24803
1.25229
1.25807
1.26568
1.27524
1.28644
1.29885
1.31183
1.32471
1.33689
1.34788
1.35728
1.36491
1.3707
1.3746
1.37657
1.14816
1.14413
1.13619
1.12469
1.11014
1.0931
1.07432
1.05469
1.03521
1.01684
1.00033
0.986531
0.976868
0.973344
0.976669
0.985848
0.998338
1.01176
1.02468
1.0358
1.0439
1.04806
1.04999
1.05122
1.05283
1.05588
1.0611
1.06894
1.07954
1.0926
1.10746
1.1231
1.13866
1.15339
1.16665
1.17795
1.18703
1.19386
1.19843
1.20073
0.979196
0.974254
0.964536
0.950523
0.932756
0.911831
0.888549
0.864044
0.839663
0.816729
0.795613
0.776854
0.762555
0.75757
0.763335
0.778384
0.797095
0.815539
0.832749
0.847188
0.856353
0.858384
0.857531
0.856063
0.855113
0.856312
0.860677
0.868705
0.880634
0.896382
0.914869
0.934288
0.953513
0.971722
0.988065
1.00186
1.01278
1.02084
1.02619
1.02887
0.816123
0.810016
0.798111
0.781048
0.759421
0.733695
0.704608
0.673618
0.642636
0.614359
0.587636
0.561054
0.536749
0.529011
0.538778
0.565371
0.593683
0.617698
0.639921
0.659244
0.669093
0.666669
0.661655
0.656978
0.652548
0.651236
0.654435
0.662578
0.676121
0.695724
0.719822
0.744619
0.768825
0.791837
0.812442
0.829547
0.842697
0.852116
0.858275
0.861355
0.660165
0.65256
0.637922
0.617213
0.591159
0.559697
0.523076
0.483238
0.442325
0.409518
0.378114
0.339651
0.290616
0.279934
0.295045
0.34846
0.390531
0.417169
0.442975
0.47005
0.478839
0.467329
0.457757
0.451108
0.442597
0.438448
0.440214
0.448283
0.46345
0.487764
0.520886
0.553298
0.583973
0.613766
0.640415
0.661891
0.677536
0.688134
0.695064
0.69857
0.513075
0.503452
0.485208
0.460027
0.429363
0.391491
0.345061
0.293393
0.232577
0.202856
0.174732
0.122602
0.00441276
0.00520524
0.0130899
0.140841
0.195856
0.21472
0.238039
0.281843
0.284525
0.252614
0.241988
0.235971
0.223718
0.218474
0.218741
0.226565
0.241351
0.267228
0.316941
0.360091
0.397579
0.437467
0.473051
0.500127
0.517942
0.528786
0.536666
0.540843
0.377215
0.364703
0.34115
0.309729
0.275614
0.231797
0.172324
0.110941
-0.00826293
-0.00245743
-0.00552872
-0.0188166
0
0
0
0.00399059
0.0265252
0.00230302
0.0118999
0.119434
0.105657
0.0108546
0.013085
0.0241405
0.00248598
-0.00332226
-0.00340005
0.00382517
0.0100823
0.0173768
0.111504
0.168476
0.204995
0.262451
0.311975
0.345707
0.363823
0.372167
0.382379
0.388572
0.255408
0.238721
0.206509
0.163203
0.131519
0.0864238
0.00206149
-0.0151251
0
0
0
0
0
0
0
0
0
0
0
0.0782158
0.00368525
0
0
0
0
0
0
0
0
0
-0.0468162
-0.00394904
-0.0116987
0.0893741
0.160523
0.201096
0.21489
0.209442
0.231318
0.243368
0.150353
0.129373
0.084324
0.0063956
-0.000798613
-0.0163032
0
0
0
0
0
0
0
0
0
0
0
0
0
0
0
0
0
0
0
0
0
0
0
0
0
0
0
-0.057728
0.0296629
0.075481
0.0760728
0.0125547
0.0892267
0.110862
0.064614
0.0455726
-0.00253711
0
0
0
0
0
0
0
0
0
0
0
0
0
0
0
0
0
0
0
0
0
0
0
0
0
0
0
0
0
0
0
-0.0609816
-0.0056317
0.0115161
0
0.00418759
0.00138116
-0.000158564
-0.0037486
0
0
0
0
0
0
0
0
0
0
0
0
0
0
0
0
0
0
0
0
0
0
0
0
0
0
0
0
0
0
0
0
0
0
0
0
0
0
0
0
0
0
0
0
0
0
0
0
0
0
0
0
0
0
0
0
0
0
0
0
0
0
0
0
0
0
0
0
0
0
0
0
0
0
0
0
0
0
0
0
0
0
0
0
0
0
0
0
0
0
0
0
0
0
0
0
0
0
0
0
0
0
0
0
0
0
0
0
0
0
0
0
0
0
0
0
0
0
0
0
0
0
0
0
0
0
0
0
0
0
0
0
0
0
0
0
0
0
0
0
0
0
0
0
0
0
0
0
0
0
0
0
0
0
0
0
0
0
0
0
0
0
0
0
0
0
0
0
0
0
0
0
0
0
0
0
0
0
0
0
0
0
0
0
0
0
0
0
0
0
0
0
0
0
0
0
0
0
0
0
0
0
0
0
0
0
0
0
0
0
0
0
0
0
0
0
0
0
0
0
0
0
0
0
0
0
0
0
0
0
0
0
0
0
0
0
0
0
0
0
0
0
0
0
0
0
0
0
0
0
0
0
0
0
0
0
0
0
0
0
0
0
0
0
0
0
0
0
0
0
0
0
0
0
0
0
0
0
0
0
0
0
0
0
0
0
0
0
0
0
0
0
0
0
0
0
0
0
0
0
0
0
0
0
0
0
0
0
0
0
0
0
0
0
0
0
0
0
0
0
0
0
0
0
0
0
0
0
0
0
0
0
0
0
0
0
0
0
0
0
0
0
0
0
0
0
0
0
0
0
0
0
0
0
0
0
0
0
0
0
0
0
0
0
0
0
0
0
0
0
0
0
0
0
0
0
0
0
0
0
0
0
0
0
0
0
0
0
0
0
0
0
0
0
0
0
0
0
0
0
0
0
0
0
0
0
0
0
0
0
0
0
0
0
0
0
0
0
0
0
0
0
0
0
0
0
0
0
0
0
0
0
0
0
0
0
0
0
0
0
0
0
0
0
0
0
0
0
0
0
0
0
0
0
0
0
0
0
0
0
0
0
0
0
0
0
0
0
0
0
0
0
0
0
0
0
0
0
0
0
0
0
0
0
0
0
0
0
0
0
0
0
0
0
0
0
0
0
0
0
0
0
0
0
0
0
0
0
0
0
0
0
0
0
0
0
0
0
SCALARS rhs double 1
LOOKUP_TABLE default
-5.09763
-5.0407
-5.03806
-5.03557
-5.03291
-5.0301
-5.02722
-5.02437
-5.02169
-5.01932
-5.01742
-5.01612
-5.01543
-5.01536
-5.01576
-5.01649
-5.01738
-5.01825
-5.01898
-5.01946
-5.01963
-5.02034
-5.0198
-5.01798
-5.01711
-5.01632
-5.01576
-5.01559
-5.01599
-5.01692
-5.01839
-5.02024
-5.0222
-5.02391
-5.0248
-5.02415
-5.022
-5.02032
-5.0194
-5.02017
-0.0374007
0.0161713
0.0173866
0.0184726
0.0197527
0.0212081
0.0227618
0.0243559
0.0258616
0.0271708
0.0281329
0.0286277
0.0288083
0.0282605
0.0272854
0.02604
0.0247163
0.0235093
0.0225626
0.0219733
0.0217982
0.0209823
0.0219583
0.023996
0.0252136
0.02641
0.0273776
0.0279381
0.0277679
0.0272553
0.0262859
0.0250027
0.0236421
0.0225522
0.0222244
0.0231799
0.0255519
0.0271033
0.0279871
0.0271522
-0.0339806
0.0171097
0.0182601
0.0192658
0.0204727
0.0218216
0.023291
0.0247839
0.0262257
0.0274639
0.0283819
0.0288413
0.0291581
0.0285844
0.0275884
0.0263354
0.0250338
0.0238574
0.0229559
0.022394
0.0222157
0.0209486
0.0223888
0.0242356
0.0254088
0.026584
0.0275471
0.0281105
0.0277761
0.0272605
0.026322
0.0251054
0.0238744
0.0230055
0.0229983
0.024306
0.02682
0.0288262
0.0296134
0.028777
-0.030639
0.0175245
0.0185929
0.0195056
0.0205902
0.0217953
0.0231079
0.0244442
0.0257427
0.0268581
0.0276678
0.0280493
0.0285248
0.0279035
0.0268727
0.0256248
0.0243715
0.0232827
0.0224662
0.0219673
0.0217882
0.0197335
0.0219729
0.0234541
0.0245378
0.0256688
0.0266266
0.0272079
0.026671
0.0261772
0.0253203
0.0242392
0.0232344
0.0227169
0.0231846
0.0250096
0.0277934
0.0301913
0.0309741
0.0301816
-0.0271177
0.0177106
0.0186769
0.0194752
0.0203794
0.0213674
0.022416
0.023486
0.0245061
0.0253747
0.0259571
0.0261352
0.0267996
0.0260765
0.0249909
0.0237708
0.0226215
0.0216978
0.0210448
0.0206498
0.0204778
0.0171136
0.0206751
0.0214999
0.0224194
0.0234748
0.024436
0.0250766
0.024279
0.0238795
0.0232051
0.0223813
0.0217509
0.0217594
0.0228858
0.0253826
0.0287798
0.03119
0.0322319
0.0315649
-0.0234985
0.0176406
0.0185132
0.0191683
0.0198317
0.0204895
0.0211256
0.0217273
0.0222481
0.0226156
0.0227157
0.0224333
0.0232494
0.0223428
0.0211534
0.0199919
0.0190262
0.0183622
0.017955
0.0176949
0.0169376
0.0130766
0.0172519
0.0175073
0.0181739
0.0191281
0.0201418
0.0209535
0.0198002
0.0196888
0.0193968
0.0190496
0.0190343
0.0198257
0.0218611
0.02523
0.0292304
0.0320298
0.033377
0.032867
-0.0198628
0.0173238
0.0181441
0.0186496
0.0190111
0.019192
0.0191912
0.0190083
0.0186266
0.0180156
0.0170949
0.0157847
0.016498
0.0152946
0.0139047
0.0128445
0.0120711
0.0116654
0.0114447
0.0111871
0.00870897
0.0055202
0.0098255
0.00968724
0.0101208
0.0110242
0.0122433
0.0135021
0.0118092
0.0124611
0.0129432
0.0134857
0.0145002
0.0164799
0.0198052
0.0243623
0.029221
0.0325434
0.0343509
0.0340688
-0.0162416
0.0168568
0.0177413
0.0181598
0.018168
0.0177085
0.0167718
0.0153281
0.0133564
0.0108839
0.00788418
0.00430136
0.00400046
0.00247173
0.000791598
-0.000114383
-0.00114493
-0.00184621
-0.00263595
-0.00377243
-0.0108515
-0.0108797
-0.00577657
-0.00558945
-0.0047334
-0.00351918
-0.00173277
0.000578809
-0.00206161
0.000378718
0.00232581
0.00456598
0.00737206
0.0112134
0.0164418
0.0227246
0.0288359
0.0331286
0.0350422
0.035199
-0.0124677
0.0166025
0.0178125
0.0182896
0.0179324
0.0166699
0.0144606
0.0111009
0.00644081
0.000714583
-0.00603171
-0.01444
-0.018251
-0.0195205
-0.0210461
-0.0216012
-0.0251591
-0.0284515
-0.0331899
-0.0388763
-0.0588761
-0.0477912
-0.0388018
-0.0349768
-0.0306376
-0.0277328
-0.0247496
-0.022029
-0.0226063
-0.0187947
-0.0146986
-0.00919852
-0.00313816
0.00369858
0.0117776
0.0206074
0.0285554
0.0338592
0.0360389
0.0363323
-0.00781085
0.0175894
0.0195026
0.0201646
0.0193454
0.0169978
0.0131133
0.00691193
-0.00208421
-0.0120036
-0.0233762
-0.042025
-0.0548939
-0.0513614
-0.0492895
-0.0483509
-0.0623218
-0.072929
-0.0932976
-0.116805
-0.173056
-0.124947
-0.102738
-0.0869843
-0.0692593
-0.0605102
-0.0560071
-0.0520674
-0.0471559
-0.0452403
-0.0411444
-0.0295591
-0.0175174
-0.00586429
0.00626893
0.0184379
0.0287138
0.034985
0.0373081
0.0375
-0.000544346
0.0218773
0.0246332
0.0250245
0.0229678
0.0184388
0.0121952
0.0013626
-0.0141428
-0.0222117
-0.0341673
-0.0818485
-0.0924076
-0.0739752
-0.0579169
-0.0543005
-0.101035
-0.112341
-0.175909
-0.268655
-0.382087
-0.255719
-0.192425
-0.163835
-0.10707
-0.0805174
-0.076408
-0.0699457
-0.0533532
-0.0714915
-0.0814522
-0.0581801