# vtk DataFile Version 4.0
Nusif Fluid VTK output
ASCII
DATASET STRUCTURED_POINTS
DIMENSIONS 40 30 1
ORIGIN 0 0 0 
SPACING 0.2 0.2 1
POINT_DATA 1200 

VECTORS velocity double
0.000184694 -0.000168793  0
0.000616907 -0.000169984  0
0.00111814 -0.00017485  0
0.00163518 -0.000183326  0
0.00217502 -0.000195503  0
0.00274493 -0.000211549  0
0.00335261 -0.000231685  0
0.00400629 -0.000256188  0
0.00471485 -0.000285393  0
0.00548792 -0.000319701  0
0.00633605 -0.00035958  0
0.00727079 -0.000405576  0
0.00830491 -0.000458315  0
0.00945253 -0.000518511  0
0.0107293 -0.000586975  0
0.0121526 -0.000664623  0
0.0137418 -0.000752479  0
0.0155185 -0.00085168  0
0.0175065 -0.000963477  0
0.0197325 -0.00108923  0
0.022226 -0.00123042  0
0.0250195 -0.00138859  0
0.028149 -0.00156538  0
0.0316537 -0.00176241  0
0.0355758 -0.00198144  0
0.0399609 -0.00222402  0
0.0448573 -0.00249158  0
0.0503158 -0.00278491  0
0.0563891 -0.00310479  0
0.0631307 -0.00345182  0
0.0705952 -0.00382663  0
0.0788409 -0.00423165  0
0.0879349 -0.00467395  0
0.0979702 -0.00517197  0
0.109103 -0.0057707  0
0.121637 -0.0065728  0
0.136145 -0.0077434  0
0.152601 -0.00852044  0
0.157827 0.00348591  0
0.0772186 0.0773146  0
0.000183301 -0.000441409  0
0.000610622 -0.00044623  0
0.00110478 -0.000461856  0
0.00161455 -0.000488117  0
0.00214682 -0.000525306  0
0.00270877 -0.000573934  0
0.00330799 -0.000634675  0
0.00395259 -0.000708369  0
0.00465134 -0.00079603  0
0.00541373 -0.000898865  0
0.00625015 -0.00101829  0
0.00717202 -0.00115593  0
0.00819192 -0.00131367  0
0.00932379 -0.00149365  0
0.0105831 -0.00169832  0
0.011987 -0.0019304  0
0.0135546 -0.00219297  0
0.0153073 -0.00248944  0
0.0172687 -0.00282358  0
0.0194652 -0.0031995  0
0.0219262 -0.00362164  0
0.0246841 -0.00409472  0
0.0277746 -0.00462368  0
0.0312369 -0.00521361  0
0.0351133 -0.00586971  0
0.0394496 -0.00659683  0
0.0442951 -0.00739872  0
0.0497011 -0.00827863  0
0.0557205 -0.00923841  0
0.0624068 -0.0102792  0
0.0698131 -0.0114018  0
0.077991 -0.0126103  0
0.0869918 -0.0139191  0
0.09687 -0.0153684  0
0.107693 -0.0170576  0
0.119552 -0.0192053  0
0.132485 -0.0220773  0
0.145276 -0.0229587  0
0.144315 0.014133  0
0.0686475 0.223418  0
0.000179275 -0.000640765  0
0.000595768 -0.00065044  0
0.00107616 -0.000677715  0
0.00157175 -0.000722359  0
0.00208924 -0.000784879  0
0.00263559 -0.000866137  0
0.0032182 -0.000967265  0
0.00384496 -0.00108967  0
0.00452437 -0.00123503  0
0.00526568 -0.00140537  0
0.00607899 -0.00160303  0
0.00697539 -0.00183072  0
0.00796715 -0.00209156  0
0.00906782 -0.00238912  0
0.0102925 -0.00272742  0
0.0116579 -0.00311103  0
0.0131826 -0.00354504  0
0.0148877 -0.00403514  0
0.0167962 -0.00458762  0
0.0189341 -0.00520936  0
0.0213303 -0.00590783  0
0.024017 -0.00669102  0
0.0270295 -0.00756739  0
0.0304068 -0.00854576  0
0.0341916 -0.00963494  0
0.0384307 -0.0108429  0
0.0431741 -0.0121766  0
0.0484744 -0.0136416  0
0.0543866 -0.0152409  0
0.060965 -0.016975  0
0.0682615 -0.018842  0
0.0763207 -0.0208402  0
0.0851736 -0.0229756  0
0.0948274 -0.0252765  0
0.105248 -0.0278255  0
0.116323 -0.0308036  0
0.127747 -0.0342677  0
0.138054 -0.0332994  0
0.1355 0.0285563  0
0.0641901 0.356539  0
0.000172671 -0.000820223  0
0.000572545 -0.000834677  0
0.00103267 -0.000873247  0
0.00150737 -0.000935673  0
0.00200305 -0.00102268  0
0.00252639 -0.00113546  0
0.00308447 -0.0012756  0
0.00368484 -0.00144503  0
0.00433565 -0.00164611  0
0.00504575 -0.00188162  0
0.00582482 -0.00215481  0
0.0066835 -0.00246944  0
0.00763354 -0.00282984  0
0.00868795 -0.00324094  0
0.00986119 -0.00370834  0
0.0111694 -0.00423837  0
0.0126305 -0.00483813  0
0.0142647 -0.00551557  0
0.0160945 -0.00627946  0
0.018145 -0.00713951  0
0.0204445 -0.00810627  0
0.0230245 -0.00919114  0
0.0259198 -0.0104064  0
0.0291692 -0.0117647  0
0.032816 -0.0132787  0
0.0369079 -0.0149603  0
0.0414962 -0.0168205  0
0.0466364 -0.0188676  0
0.0523867 -0.0211062  0
0.0588054 -0.0235355  0
0.0659474 -0.0261482  0
0.0738569 -0.0289305  0
0.0825548 -0.0318639  0
0.0920184 -0.0349332  0
0.102146 -0.0381442  0
0.112697 -0.0415387  0
0.123171 -0.0448576  0
0.1321 -0.0413741  0
0.129498 0.0423606  0
0.0615497 0.482565  0
0.000163574 -0.000973323  0
0.000541267 -0.000992418  0
0.000974899 -0.00104177  0
0.00142228 -0.00112114  0
0.00188944 -0.00123144  0
0.00238267 -0.0013742  0
0.00290863 -0.00155143  0
0.00347444 -0.00176557  0
0.00408777 -0.00201961  0
0.00475697 -0.00231705  0
0.00549116 -0.00266203  0
0.00630036 -0.00305929  0
0.00719565 -0.00351432  0
0.00818932 -0.00403336  0
0.00929504 -0.00462354  0
0.0105281 -0.0052929  0
0.0119054 -0.00605048  0
0.0134463 -0.00690643  0
0.0151722 -0.00787204  0
0.0171073 -0.00895979  0
0.0192787 -0.0101834  0
0.0217169 -0.0115579  0
0.0244559 -0.0130995  0
0.0275344 -0.0148251  0
0.0309959 -0.0167517  0
0.0348888 -0.0188964  0
0.0392666 -0.0212747  0
0.0441886 -0.0238994  0
0.0497185 -0.0267779  0
0.0559227 -0.0299097  0
0.0628662 -0.0332823  0
0.0706047 -0.036867  0
0.0791703 -0.0406133  0
0.0885456 -0.044445  0
0.0986203 -0.0482569  0
0.109118 -0.0518967  0
0.11947 -0.0547483  0
0.128311 -0.0486756  0
0.127179 0.0539739  0
0.0611265 0.60553  0
0.000152105 -0.00109398  0
0.000502352 -0.00111751  0
0.000903637 -0.00117699  0
0.00131765 -0.00127221  0
0.00174996 -0.0014043  0
0.00220639 -0.00157508  0
0.00269309 -0.00178696  0
0.00321665 -0.00204287  0
0.00378415 -0.00234636  0
0.00440332 -0.00270165  0
0.00508258 -0.00311366  0
0.0058312 -0.0035881  0
0.00665946 -0.00413151  0
0.00757871 -0.00475141  0
0.00860164 -0.00545634  0
0.00974243 -0.00625596  0
0.011017 -0.00716122  0
0.0124431 -0.00818438  0
0.0140411 -0.00933917  0
0.0158336 -0.0106409  0
0.0178464 -0.0121065  0
0.0201083 -0.0137547  0
0.0226525 -0.0156059  0
0.025517 -0.0176813  0
0.0287447 -0.0200036  0
0.0323848 -0.0225958  0
0.0364931 -0.0254796  0
0.0411331 -0.0286744  0
0.0463762 -0.0321934  0
0.0523008 -0.0360402  0
0.0589899 -0.0402016  0
0.0665256 -0.044639  0
0.0749764 -0.0492746  0
0.0843741 -0.0539736  0
0.0946719 -0.0585176  0
0.105673 -0.0625517  0
0.116912 -0.0651011  0
0.127258 -0.056926  0
0.129184 0.0620124  0
0.0631819 0.73013  0
0.000138414 -0.00117654  0
0.000456327 -0.00120425  0
0.000819857 -0.00127305  0
0.00119492 -0.00138282  0
0.00158654 -0.00153488  0
0.00199999 -0.00173135  0
0.00244083 -0.00197495  0
0.00291502 -0.0022691  0
0.00342897 -0.00261787  0
0.00398966 -0.00302611  0
0.0046047 -0.00349947  0
0.0052825 -0.00404453  0
0.00603232 -0.00466885  0
0.00686448 -0.00538107  0
0.00779046 -0.00619107  0
0.00882314 -0.00711005  0
0.009977 -0.00815071  0
0.0112683 -0.00932732  0
0.0127157 -0.010656  0
0.01434 -0.0121547  0
0.0161648 -0.0138438  0
0.0182174 -0.0157456  0
0.0205293 -0.0178846  0
0.0231366 -0.0202873  0
0.0260814 -0.0229827  0
0.0294126 -0.0260004  0
0.0331879 -0.0293707  0
0.0374747 -0.0331221  0
0.0423525 -0.0372783  0
0.0479143 -0.0418531  0
0.0542672 -0.0468421  0
0.0615316 -0.0522098  0
0.0698359 -0.0578699  0
0.079302 -0.0636532  0
0.0900194 -0.0692641  0
0.101994 -0.074192  0
0.115053 -0.0771701  0
0.128473 -0.0680331  0
0.134782 0.0654723  0
0.0672186 0.860825  0
0.000122687 -0.0012159  0
0.000403817 -0.00124746  0
0.000724706 -0.00132465  0
0.00105576 -0.00144746  0
0.00140142 -0.00161741  0
0.0017663 -0.00183684  0
0.00215532 -0.00210883  0
0.00257371 -0.00243715  0
0.00302713 -0.00282638  0
0.00352169 -0.00328192  0
0.00406413 -0.0038101  0
0.0046618 -0.00441824  0
0.00532289 -0.00511482  0
0.00605645 -0.00590951  0
0.00687263 -0.00681339  0
0.00778276 -0.00783905  0
0.00879965 -0.00900078  0
0.00993779 -0.0103148  0
0.0112136 -0.0117993  0
0.0126457 -0.013475  0
0.0142554 -0.0153653  0
0.0160675 -0.017496  0
0.0181107 -0.0198961  0
0.0204188 -0.0225978  0
0.0230316 -0.0256361  0
0.0259966 -0.0290493  0
0.0293711 -0.0328775  0
0.0332253 -0.0371619  0
0.0376449 -0.0419416  0
0.0427367 -0.0472488  0
0.048633 -0.0531009  0
0.0554981 -0.0594858  0
0.0635328 -0.0663381  0
0.0729781 -0.0735014  0
0.0841108 -0.0806711  0
0.0972285 -0.0872823  0
0.112614 -0.0919302  0
0.130136 -0.0836191  0
0.14175 0.063729  0
0.072068 1.00041  0
0.000105139 -0.00120753  0
0.000345546 -0.00124258  0
0.000619495 -0.0013271  0
0.000902108 -0.00146126  0
0.00119715 -0.00164674  0
0.00150855 -0.00188611  0
0.0018405 -0.00218273  0
0.00219745 -0.00254071  0
0.00258418 -0.00296502  0
0.00300592 -0.00346156  0
0.00346836 -0.00403723  0
0.00397775 -0.00470002  0
0.00454103 -0.00545918  0
0.00516588 -0.00632529  0
0.00586089 -0.00731047  0
0.00663572 -0.00842851  0
0.00750125 -0.00969514  0
0.00846981 -0.0111282  0
0.00955539 -0.012748  0
0.0107739 -0.0145776  0
0.0121437 -0.0166431  0
0.0136865 -0.0189737  0
0.0154275 -0.021603  0
0.0173966 -0.0245682  0
0.0196298 -0.0279116  0
0.0221711 -0.03168  0
0.0250751 -0.0359252  0
0.0284106 -0.0407034  0
0.0322656 -0.0460742  0
0.036755 -0.0520967  0
0.0420306 -0.0588242  0
0.048295 -0.0662912  0
0.0558197 -0.0744914  0
0.0649684 -0.0833412  0
0.0762183 -0.0926132  0
0.0901818 -0.101821  0
0.107615 -0.10961  0
0.12901 -0.104256  0
0.14624 0.0561217  0
0.0758812 1.14866  0
8.6018e-05 -0.00114758  0
0.000282331 -0.00118567  0
0.000505693 -0.00127636  0
0.000736089 -0.00142001  0
0.000976566 -0.00161847  0
0.00123033 -0.0018745  0
0.00150075 -0.00219165  0
0.00179145 -0.00257433  0
0.00210631 -0.00302787  0
0.00244953 -0.00355854  0
0.00282572 -0.00417371  0
0.00323991 -0.00488195  0
0.0036977 -0.00569312  0
0.00420526 -0.00661855  0
0.00476951 -0.00767122  0
0.0053982 -0.00886595  0
0.00610011 -0.0102196  0
0.00688513 -0.0117515  0
0.00776445 -0.0134837  0
0.00875092 -0.0154411  0
0.00985957 -0.0176522  0
0.0111079 -0.0201497  0
0.0125167 -0.0229706  0
0.0141108 -0.0261575  0
0.0159206 -0.029759  0
0.017984 -0.0338308  0
0.0203489 -0.0384367  0
0.0230779 -0.0436497  0
0.0262539 -0.0495523  0
0.0299899 -0.0562373  0
0.0344431 -0.0638057  0
0.0398362 -0.0723604  0
0.0464901 -0.081994  0
0.054867 -0.0927573  0
0.0656246 -0.104598  0
0.0796591 -0.117227  0
0.0980609 -0.129431  0
0.121588 -0.12875  0
0.143732 0.0418491  0
0.0763928 1.30124  0
6.5625e-05 -0.00103292  0
0.000215145 -0.00107357  0
0.000385025 -0.00116917  0
0.000560205 -0.00132032  0
0.000742986 -0.00152903  0
0.000935789 -0.00179817  0
0.00114117 -0.0021315  0
0.00136183 -0.00253362  0
0.0016007 -0.00301012  0
0.00186092 -0.00356758  0
0.00214594 -0.00421375  0
0.00245951 -0.00495759  0
0.00280578 -0.00580946  0
0.00318934 -0.00678127  0
0.00361532 -0.00788666  0
0.00408944 -0.0091412  0
0.00461817 -0.0105627  0
0.00520872 -0.0121716  0
0.00586932 -0.0139911  0
0.00660943 -0.0160479  0
0.00744007 -0.0183724  0
0.00837414 -0.0209995  0
0.00942692 -0.0239698  0
0.010617 -0.0273299  0
0.0119673 -0.0311341  0
0.0135069 -0.0354459  0
0.0152732 -0.0403402  0
0.0173164 -0.0459057  0
0.0197054 -0.0522485  0
0.0225373 -0.0594964  0
0.025954 -0.0678038  0
0.0301679 -0.0773567  0
0.0355056 -0.0883767  0
0.0424773 -0.101111  0
0.0518823 -0.115794  0
0.064935 -0.132505  0
0.0832962 -0.150304  0
0.108677 -0.156174  0
0.139162 0.0172565  0
0.0775036 1.45544  0
4.45816e-05 -0.000861544  0
0.000145921 -0.000904191  0
0.00026082 -0.00100337  0
0.000379238 -0.00115996  0
0.000502723 -0.00137607  0
0.000632897 -0.00165467  0
0.000771461 -0.00199963  0
0.000920217 -0.00241572  0
0.00108109 -0.00290867  0
0.00125616 -0.00348531  0
0.00144767 -0.00415362  0
0.00165809 -0.00492284  0
0.00189011 -0.00580369  0
0.0021467 -0.00680844  0
0.00243114 -0.00795117  0
0.00274712 -0.00924802  0
0.00309872 -0.0107174  0
0.0034905 -0.0123804  0
0.00392763 -0.0142613  0
0.00441603 -0.0163876  0
0.00496257 -0.0187911  0
0.00557524 -0.0215087  0
0.00626354 -0.024583  0
0.00703905 -0.0280636  0
0.00791617 -0.0320091  0
0.00891333 -0.0364889  0
0.0100548 -0.0415864  0
0.0113738 -0.0474031  0
0.0129171 -0.0540647  0
0.0147534 -0.0617298  0
0.0169868 -0.0706019  0
0.0197826 -0.0809497  0
0.023413 -0.0931335  0
0.0283472 -0.107641  0
0.0354311 -0.125134  0
0.0462521 -0.146421  0
0.0638679 -0.171747  0
0.0939476 -0.189573  0
0.141349 -0.026612  0
0.0848408 1.61809  0
2.59249e-05 -0.000635288  0
8.38712e-05 -0.000679333  0
0.000148677 -0.000780815  0
0.000215439 -0.00094088  0
0.000285032 -0.00116168  0
0.000358364 -0.00144625  0
0.000436379 -0.00179852  0
0.000520074 -0.00222335  0
0.000610512 -0.00272659  0
0.000708836 -0.00331517  0
0.000816282 -0.00399722  0
0.000934191 -0.00478218  0
0.00106403 -0.00568092  0
0.00120742 -0.00670597  0
0.00136616 -0.00787167  0
0.00154226 -0.00919446  0
0.00173794 -0.0106931  0
0.0019557 -0.0123892  0
0.00219835 -0.0143074  0
0.00246918 -0.0164759  0
0.00277192 -0.0189273  0
0.00311088 -0.0216994  0
0.00349122 -0.0248362  0
0.00391919 -0.0283892  0
0.00440263 -0.0324195  0
0.00495162 -0.0370002  0
0.00557958 -0.0422201  0
0.00630501 -0.0481894  0
0.00715437 -0.0550469  0
0.00816704 -0.0629724  0
0.0094044 -0.072206  0
0.0109671 -0.0830801  0
0.0130307 -0.0960732  0
0.0159268 -0.111908  0
0.0203458 -0.131747  0
0.0278946 -0.157555  0
0.0427791 -0.19249  0
0.0766189 -0.232126  0
0.151138 -0.105356  0
0.100931 1.80417  0
2.34762e-05 -0.000532538  0
7.11325e-05 -0.000577832  0
0.00012017 -0.000680849  0
0.000170887 -0.000843191  0
0.000223953 -0.00106705  0
0.000280088 -0.00135551  0
0.000340057 -0.00171254  0
0.000404686 -0.00214306  0
0.000474876 -0.002653  0
0.000551612 -0.00324939  0
0.000635984 -0.00394046  0
0.000729205 -0.00473577  0
0.000832638 -0.00564636  0
0.000947836 -0.00668493  0
0.00107661 -0.00786608  0
0.00122109 -0.00920652  0
0.00138374 -0.0107253  0
0.00156742 -0.0124445  0
0.00177557 -0.014389  0
0.00201214 -0.0165877  0
0.00228183 -0.019074  0
0.00259019 -0.0218862  0
0.00294379 -0.0250696  0
0.00335081 -0.0286771  0
0.00382141 -0.0327719  0
0.00436852 -0.0374301  0
0.00500892 -0.0427449  0
0.005765 -0.0488326  0
0.00666728 -0.0558418  0
0.0077591 -0.0639684  0
0.00910467 -0.0734794  0
0.0108041 -0.0847554  0
0.0130263 -0.0983703  0
0.0160859 -0.115253  0
0.020617 -0.137038  0
0.0278221 -0.166704  0
0.0391101 -0.2092  0
0.0567719 -0.266605  0
0.140924 -0.229235  0
0.107118 2.01238  0
4.64755e-05 -0.000278007  0
0.000145979 -0.000301006  0
0.000253689 -0.000352854  0
0.000365163 -0.000434525  0
0.000481646 -0.00054713  0
0.000604747 -0.000692217  0
0.000736161 -0.000871789  0
0.000877699 -0.00108832  0
0.00103132 -0.0013448  0
0.00119916 -0.00164476  0
0.0013836 -0.00199235  0
0.00158726 -0.00239238  0
0.0018131 -0.0028504  0
0.00206448 -0.00337284  0
0.00234526 -0.00396705  0
0.00265981 -0.00464148  0
0.00301323 -0.00540577  0
0.00341147 -0.00627098  0
0.0038614 -0.00724982  0
0.0043712 -0.00835681  0
0.00495043 -0.00960888  0
0.00561061 -0.0110254  0
0.00636593 -0.0126293  0
0.00723377 -0.0144475  0
0.00823618 -0.0165123  0
0.00940166 -0.0188623  0
0.010768 -0.0215454  0
0.0123866 -0.0246214  0
0.01433 -0.028167  0
0.0167048 -0.0322841  0
0.0196751 -0.0371126  0
0.0235109 -0.0428545  0
0.0286939 -0.0498195  0
0.0361556 -0.0585221  0
0.0476794 -0.0698892  0
0.0659442 -0.0855844  0
0.0922473 -0.108011  0
0.100035 -0.138722  0
-1.05755 -0.151274  0
-1.10391 1.05975  0
0 0  0
0 0  0
0 0  0
0 0  0
0 0  0
0 0  0
0 0  0
0 0  0
0 0  0
0 0  0
0 0  0
0 0  0
0 0  0
0 0  0
0 0  0
0 0  0
0 0  0
0.000119669 -0.322882  0
-0.00049344 -0.322882  0
-0.00110108 -0.323615  0
-0.00068739 -0.324053  0
-0.000368217 -0.324084  0
-0.0001688 -0.324084  0
0 0  0
0 0  0
0 0  0
0 0  0
0 0  0
0 0  0
0 0  0
0 0  0
0 0  0
0 0  0
0 0  0
0 0  0
0 0  0
0 0  0
0 0  0
0 0  0
0 0  0
0 0  0
0 0  0
0 0  0
0 0  0
0 0  0
0 0  0
0 0  0
0 0  0
0 0  0
0 0  0
0 0  0
0 0  0
0 0  0
0 0  0
0 0  0
0 0  0
0.00100779 -0.321199  0
0.00112746 -0.644081  0
0.000239339 -0.645764  0
7.0145e-05 -0.64706  0
-0.000218325 -0.647987  0
-0.000337601 -0.648167  0
-0.000404455 -0.648719  0
-0.000235655 -0.324636  0
0 0  0
0 0  0
0 0  0
0 0  0
0 0  0
0 0  0
0 0  0
0 0  0
0 0  0
0 0  0
0 0  0
0 0  0
0 0  0
0 0  0
0 0  0
0 0  0
0 0  0
0 0  0
0 0  0
0 0  0
0 0  0
0 0  0
0 0  0
0 0  0
0 0  0
0 0  0
0 0  0
0 0  0
0 0  0
0 0  0
0 0  0
0 0  0
0.00100779 -0.637035  0
0.00201558 -0.642398  0
0.0010572 -0.644651  0
-0.000468779 -0.646169  0
-0.00115922 -0.647591  0
-0.00087669 -0.648419  0
-0.000471309 -0.649271  0
-0.000235655 -0.648863  0
0 0  0
0 0  0
0 0  0
0 0  0
0 0  0
0 0  0
0 0  0
0 0  0
0 0  0
0 0  0
0 0  0
0 0  0
0 0  0
0 0  0
0 0  0
0 0  0
0 0  0
0 0  0
0 0  0
0 0  0
0 0  0
0 0  0
0 0  0
0 0  0
0 0  0
0 0  0
0 0  0
0 0  0
0 0  0
0 0  0
0 0  0
0 0  0
0.00637089 -0.624102  0
0.00840066 -0.638057  0
0.00131521 -0.64064  0
-0.00217684 -0.644546  0
-0.00280223 -0.647282  0
-0.00221117 -0.648985  0
-0.0015151 -0.649499  0
-0.000643884 -0.648351  0
0 0  0
0 0  0
0 0  0
0 0  0
0 0  0
0 0  0
0 0  0
0 0  0
0 0  0
0 0  0
0 0  0
0 0  0
0 0  0
0 0  0
0 0  0
0 0  0
0 0  0
0 0  0
0 0  0
0 0  0
0 0  0
0 0  0
0 0  0
0 0  0
0 0  0
0 0  0
0 0  0
0 0  0
0 0  0
0 0  0
0 0  0
0 0  0
0.0149629 -0.63482  0
0.0169194 -0.620709  0
-0.00120057 -0.632475  0
-0.00653802 -0.643266  0
-0.00590842 -0.64795  0
-0.00407764 -0.650123  0
-0.00293338 -0.649893  0
-0.00138314 -0.647738  0
0 0  0
0 0  0
0 0  0
0 0  0
0 0  0
0 0  0
0 0  0
0 0  0
0 0  0
0 0  0
0 0  0
0 0  0
0 0  0
0 0  0
0 0  0
0 0  0
0 0  0
0 0  0
0 0  0
0 0  0
0 0  0
0 0  0
0 0  0
0 0  0
0 0  0
0 0  0
0 0  0
0 0  0
0 0  0
0 0  0
0 0  0
0 0  0
-0.00773942 -0.630405  0
-0.0154788 -0.607703  0
-0.0172663 -0.625266  0
-0.0162619 -0.645526  0
-0.0112198 -0.650746  0
-0.00728412 -0.652477  0
-0.00559871 -0.65006  0
-0.00279936 -0.648644  0
0 0  0
0 0  0
0 0  0
0 0  0
0 0  0
0 0  0
0 0  0
0 0  0
0 0  0
0 0  0
0 0  0
0 0  0
0 0  0
0 0  0
0 0  0
0 0  0
0 0  0
0 0  0
0 0  0
0 0  0
0 0  0
0 0  0
0 0  0
0 0  0
0 0  0
0 0  0
0 0  0
0 0  0
0 0  0
0 0  0
0 0  0
0 0  0
-0.00773942 -0.303851  0
-0.0242073 -0.615514  0
-0.0329358 -0.623324  0
-0.0261607 -0.654939  0
-0.0174799 -0.654748  0
-0.0155742 -0.654009  0
-0.0105865 -0.652034  0
-0.00279936 -0.32503  0
0 0  0
0 0  0
0 0  0
0 0  0
0 0  0
0 0  0
0 0  0
0 0  0
0 0  0
0 0  0
0 0  0
0 0  0
0 0  0
0 0  0
0 0  0
0 0  0
0 0  0
0 0  0
0 0  0
0 0  0
0 0  0
0 0  0
0 0  0
0 0  0
0 0  0
0 0  0
0 0  0
0 0  0
0 0  0
0 0  0
0 0  0
0 0  0
0 0  0
-0.0164679 -0.311662  0
-0.0137411 -0.311662  0
-0.00949613 -0.330857  0
-0.0213326 -0.328327  0
-0.0168967 -0.327004  0
-0.00778711 -0.327004  0
0 0  0
0 0  0
0 0  0
0 0  0
0 0  0
0 0  0
0 0  0
0 0  0
0 0  0
0 0  0
0 0  0
0 0  0
0 0  0
0 0  0
0 0  0
0 0  0
0 0  0
0 0  0
0 0  0
0 0  0
0 0  0
0 0  0
0 0  0
0 0  0
0 0  0
0 0  0
0 0  0
0 0  0
0 0  0
0 0  0
0 0  0
0 0  0
0 0  0
0 0  0
0 0  0
0 0  0
0 0  0
0 0  0
0 0  0
0 0  0
0 0  0
0 0  0
0 0  0
0 0  0
0 0  0
0 0  0
0 0  0
0 0  0
0 0  0
0 0  0
0 0  0
0 0  0
0 0  0
0 0  0
0 0  0
0 0  0
0 0  0
0 0  0
0 0  0
0 0  0
0 0  0
0 0  0
0 0  0
0 0  0
0 0  0
0 0  0
0 0  0
0 0  0
0 0  0
0 0  0
0 0  0
0 0  0
0 0  0
0 0  0
0 0  0
0 0  0
0 0  0
0 0  0
0 0  0
0 0  0
0 0  0
0 0  0
0 0  0
0 0  0
0 0  0
0 0  0
0 0  0
0 0  0
0 0  0
0 0  0
0 0  0
0 0  0
0 0  0
0 0  0
0 0  0
0 0  0
0 0  0
0 0  0
0 0  0
0 0  0
0 0  0
0 0  0
0 0  0
0 0  0
0 0  0
0 0  0
0 0  0
0 0  0
0 0  0
0 0  0
0 0  0
0 0  0
0 0  0
0 0  0
0 0  0
0 0  0
0 0  0
0 0  0
0 0  0
0 0  0
0 0  0
0 0  0
0 0  0
0 0  0
0 0  0
0 0  0
0 0  0
0 0  0
0 0  0
0 0  0
0 0  0
0 0  0
0 0  0
0 0  0
0 0  0
0 0  0
0 0  0
0 0  0
0 0  0
0 0  0
0 0  0
0 0  0
0 0  0
0 0  0
0 0  0
0 0  0
0 0  0
0 0  0
0 0  0
0 0  0
0 0  0
0 0  0
0 0  0
0 0  0
0 0  0
0 0  0
0 0  0
0 0  0
0 0  0
0 0  0
0 0  0
0 0  0
0 0  0
0 0  0
0 0  0
0 0  0
0 0  0
0 0  0
0 0  0
0 0  0
0 0  0
0 0  0
0 0  0
0 0  0
0 0  0
0 0  0
0 0  0
0 0  0
0 0  0
0 0  0
0 0  0
0 0  0
0 0  0
0 0  0
0 0  0
0 0  0
0 0  0
0 0  0
0 0  0
0 0  0
0 0  0
0 0  0
0 0  0
0 0  0
0 0  0
0 0  0
0 0  0
0 0  0
0 0  0
0 0  0
0 0  0
0 0  0
0 0  0
0 0  0
0 0  0
0 0  0
0 0  0
0 0  0
0 0  0
0 0  0
0 0  0
0 0  0
0 0  0
0 0  0
0 0  0
0 0  0
0 0  0
0 0  0
0 0  0
0 0  0
0 0  0
0 0  0
0 0  0
0 0  0
0 0  0
0 0  0
0 0  0
0 0  0
0 0  0
0 0  0
0 0  0
0 0  0
0 0  0
0 0  0
0 0  0
0 0  0
0 0  0
0 0  0
0 0  0
0 0  0
0 0  0
0 0  0
0 0  0
0 0  0
0 0  0
0 0  0
0 0  0
0 0  0
0 0  0
0 0  0
0 0  0
0 0  0
0 0  0
0 0  0
0 0  0
0 0  0
0 0  0
0 0  0
0 0  0
0 0  0
0 0  0
0 0  0
0 0  0
0 0  0
0 0  0
0 0  0
0 0  0
0 0  0
0 0  0
0 0  0
0 0  0
0 0  0
0 0  0
0 0  0
0 0  0
0 0  0
0 0  0
0 0  0
0 0  0
0 0  0
0 0  0
0 0  0
0 0  0
0 0  0
0 0  0
0 0  0
0 0  0
0 0  0
0 0  0
0 0  0
0 0  0
0 0  0
0 0  0
0 0  0
0 0  0
0 0  0
0 0  0

SCALARS pressure double 1
LOOKUP_TABLE default
3.88072
3.88088
3.88114
3.88155
3.88209
3.88279
3.88366
3.88471
3.88597
3.88745
3.88917
3.89118
3.89349
3.89613
3.89916
3.9026
3.90651
3.91094
3.91594
3.92158
3.92793
3.93507
3.94306
3.95201
3.96198
3.97309
3.98543
3.99912
4.01425
4.03094
4.04926
4.06931
4.09114
4.11478
4.14023
4.16745
4.19637
4.22696
4.25961
4.29324
3.66666
3.66683
3.6671
3.66751
3.66806
3.66876
3.66962
3.67067
3.67192
3.67339
3.67511
3.67709
3.67938
3.682
3.68499
3.6884
3.69226
3.69664
3.70158
3.70715
3.71343
3.72047
3.72837
3.73719
3.74705
3.75802
3.77023
3.78378
3.79877
3.81532
3.83352
3.85346
3.87521
3.89879
3.92421
3.95139
3.9802
4.01046
4.04224
4.07494
3.43851
3.43867
3.43895
3.43935
3.43989
3.44058
3.44143
3.44246
3.44369
3.44513
3.4468
3.44874
3.45098
3.45353
3.45645
3.45978
3.46354
3.46781
3.47263
3.47807
3.48418
3.49105
3.49875
3.50735
3.51697
3.52771
3.53965
3.55293
3.56766
3.58394
3.60191
3.62164
3.64324
3.66674
3.69215
3.71937
3.74823
3.77837
3.80957
3.84055
3.19626
3.19643
3.1967
3.19709
3.19761
3.19828
3.19911
3.2001
3.20128
3.20267
3.20428
3.20615
3.2083
3.21076
3.21357
3.21676
3.22038
3.22448
3.22912
3.23434
3.24022
3.24682
3.25422
3.26251
3.27179
3.28215
3.29371
3.30659
3.32091
3.3368
3.3544
3.37383
3.39519
3.41858
3.44402
3.47145
3.5007
3.53139
3.56304
3.59346
2.93992
2.94009
2.94035
2.94072
2.94122
2.94186
2.94265
2.94359
2.94471
2.94603
2.94756
2.94932
2.95136
2.95369
2.95634
2.95936
2.96279
2.96667
2.97105
2.97599
2.98156
2.98781
2.99482
3.00269
3.01151
3.02138
3.03242
3.04475
3.05851
3.07386
3.09094
3.10992
3.13094
3.15415
3.17964
3.20746
3.23752
3.2696
3.30321
3.33475
2.66951
2.66966
2.6699
2.67026
2.67073
2.67132
2.67205
2.67293
2.67398
2.6752
2.67663
2.67827
2.68016
2.68232
2.68479
2.68759
2.69078
2.69438
2.69846
2.70305
2.70822
2.71404
2.72057
2.72792
2.73616
2.74541
2.75579
2.76742
2.78046
2.79508
2.81146
2.8298
2.85031
2.87321
2.8987
2.92696
2.95812
2.99224
3.02909
3.06336
2.38501
2.38515
2.38538
2.3857
2.38613
2.38667
2.38734
2.38814
2.3891
2.39021
2.39151
2.393
2.39472
2.39669
2.39893
2.40148
2.40438
2.40766
2.41136
2.41554
2.42025
2.42555
2.43152
2.43824
2.44579
2.45429
2.46385
2.47462
2.48675
2.50043
2.51588
2.53334
2.55309
2.57544
2.60071
2.62927
2.66147
2.69772
2.73823
2.77616
2.08644
2.08657
2.08677
2.08706
2.08744
2.08792
2.08852
2.08923
2.09007
2.09106
2.09221
2.09354
2.09506
2.0968
2.09879
2.10105
2.10362
2.10653
2.10981
2.11352
2.1177
2.12241
2.12772
2.13371
2.14046
2.14807
2.15667
2.16639
2.1774
2.18991
2.20415
2.22041
2.23905
2.26046
2.28512
2.31356
2.34636
2.38413
2.4275
2.46903
1.7738
1.77391
1.77409
1.77433
1.77466
1.77508
1.77559
1.7762
1.77693
1.77778
1.77876
1.7799
1.7812
1.7827
1.7844
1.78634
1.78854
1.79103
1.79385
1.79703
1.80062
1.80467
1.80924
1.8144
1.82023
1.82683
1.8343
1.84279
1.85247
1.86353
1.87624
1.89092
1.90797
1.9279
1.95134
1.979
2.01167
2.04999
2.0947
2.13892
1.44711
1.4472
1.44734
1.44755
1.44782
1.44816
1.44858
1.44908
1.44967
1.45037
1.45117
1.4521
1.45317
1.4544
1.45579
1.45738
1.45918
1.46122
1.46352
1.46613
1.46907
1.4724
1.47615
1.4804
1.48521
1.49066
1.49686
1.50394
1.51204
1.52137
1.53219
1.54483
1.55972
1.57746
1.59882
1.62478
1.65646
1.69488
1.74106
1.78809
1.10636
1.10643
1.10654
1.1067
1.10691
1.10717
1.10749
1.10787
1.10832
1.10885
1.10947
1.11018
1.111
1.11193
1.113
1.11421
1.11558
1.11714
1.1189
1.12089
1.12314
1.12568
1.12856
1.13181
1.13551
1.13971
1.14449
1.14998
1.15629
1.1636
1.17214
1.18223
1.1943
1.20896
1.2271
1.24998
1.27941
1.31784
1.36905
1.42164
0.751577
0.751625
0.751699
0.751805
0.751946
0.752122
0.752338
0.752597
0.752903
0.753262
0.753677
0.754157
0.754708
0.755337
0.756056
0.756872
0.757798
0.758847
0.760034
0.761376
0.762895
0.764612
0.766556
0.76876
0.771262
0.774111
0.777367
0.781106
0.785424
0.790452
0.796363
0.803405
0.81193
0.822474
0.83588
0.853541
0.877869
0.913266
0.969429
1.03034
0.382765
0.382789
0.382826
0.38288
0.38295
0.383039
0.383147
0.383278
0.383431
0.383611
0.38382
0.38406
0.384336
0.384652
0.385012
0.385421
0.385885
0.38641
0.387005
0.387677
0.388438
0.389299
0.390273
0.391378
0.392633
0.394063
0.395699
0.397579
0.399754
0.402291
0.405282
0.408857
0.413208
0.418635
0.425642
0.43518
0.449205
0.471554
0.512163
0.578491
-1.16449e-05
-1.19673e-05
-1.22997e-05
-1.27951e-05
-1.34632e-05
-1.43138e-05
-1.53602e-05
-1.66195e-05
-1.81116e-05
-1.98586e-05
-2.18895e-05
-2.42363e-05
-2.69409e-05
-3.00563e-05
-3.36572e-05
-3.78252e-05
-4.26412e-05
-4.82343e-05
-5.47447e-05
-6.22952e-05
-7.11303e-05
-8.14147e-05
-9.34967e-05
-0.000107806
-0.0001249
-0.000145561
-0.000170905
-0.000202531
-0.000242815
-0.000295588
-0.000367108
-0.000468365
-0.000621231
-0.000873271
-0.00133038
-0.0021685
-0.00330941
-0.0050183
-0.035921
0.0521427
0
0
0
0
0
0
0
0
0
0
0
0
0
0
0
0
0
0
0
0
0
0
0
0
0
0
0
0
0
0
0
0
0
0
0
0
0
0
0
0
0
0
0
0
0
0
0
0
0
0
0
0
0
0
0
0
0
0
0
0
0
0
0
0
0
0
0
0
0
0
0
0
0
0
0
0
0
0
0
0
0
0
0
0
0
0
0
0
0
0
0
0
0
0
0
0
0
0
1.26506e-05
7.87555e-05
5.62022e-05
0.000153137
0
0
0
0
0
0
0
0
0
0
0
0
0
0
0
0
0
0
0
0
0
0
0
0
0
0
0
0
0
0
0
0
0
0
0
0.00057297
0.0095051
0.0138658
0.0145816
0.0109102
0.000312609
0
0
0
0
0
0
0
0
0
0
0
0
0
0
0
0
0
0
0
0
0
0
0
0
0
0
0
0
0
0
0
0
0
0
-0.00202769
0.00947294
0.0171543
0.019355
0.0145036
0.000112126
0
0
0
0
0
0
0
0
0
0
0
0
0
0
0
0
0
0
0
0
0
0
0
0
0
0
0
0
0
0
0
0
0
0
-0.00602399
-0.000796219
0.0118913
0.0171704
0.0136844
8.5373e-05
0
0
0
0
0
0
0
0
0
0
0
0
0
0
0
0
0
0
0
0
0
0
0
0
0
0
0
0
0
0
0
0
0
0
-0.0716025
-0.033157
-0.00010525
0.00971463
0.00902039
6.84049e-05
0
0
0
0
0
0
0
0
0
0
0
0
0
0
0
0
0
0
0
0
0
0
0
0
0
0
0
0
0
0
0
0
0
0
0
-0.0742805
-0.00281875
-0.000924884
-0.000952409
0
0
0
0
0
0
0
0
0
0
0
0
0
0
0
0
0
0
0
0
0
0
0
0
0
0
0
0
0
0
0
0
0
0
0
0
0
0
0
0
0
0
0
0
0
0
0
0
0
0
0
0
0
0
0
0
0
0
0
0
0
0
0
0
0
0
0
0
0
0
0
0
0
0
0
0
0
0
0
0
0
0
0
0
0
0
0
0
0
0
0
0
0
0
0
0
0
0
0
0
0
0
0
0
0
0
0
0
0
0
0
0
0
0
0
0
0
0
0
0
0
0
0
0
0
0
0
0
0
0
0
0
0
0
0
0
0
0
0
0
0
0
0
0
0
0
0
0
0
0
0
0
0
0
0
0
0
0
0
0
0
0
0
0
0
0
0
0
0
0
0
0
0
0
0
0
0
0
0
0
0
0
0
0
0
0
0
0
0
0
0
0
0
0
0
0
0
0
0
0
0
0
0
0
0
0
0
0
0
0
0
0
0
0
0
0
0
0
0
0
0
0
0
0
0
0
0
0
0
0
0
0
0
0
0
0
0
0
0
0
0
0
0
0
0
0
0
0
0
0
0
0
0
0
0
0
0
0
0
0
0
0
0
0
0
0
0
0
0
0
0
0
0
0
0
0
0
0
0
0
0
0
0
0
0
0
0
0
0
0
0
0
0
0
0
0
0
0
0
0
0
0
0
0
0
0
0
0
0
0
0
0
0
0
0
0
0
0
0
0
0
0
0
0
0
0
0
0
0
0
0
0
0
0
0
0
0
0
SCALARS rhs double 1
LOOKUP_TABLE default
-5.48547
-5.42488
-5.42285
-5.42135
-5.41999
-5.41877
-5.41767
-5.41668
-5.41578
-5.41498
-5.41425
-5.4136
-5.413
-5.41247
-5.41199
-5.41156
-5.41117
-5.41082
-5.41051
-5.41025
-5.41002
-5.40984
-5.40971
-5.40962
-5.4096
-5.40964
-5.40976
-5.40996
-5.41025
-5.41065
-5.41118
-5.41183
-5.41266
-5.41371
-5.41514
-5.4173
-5.4206
-5.419
-5.46807
-6.35618
-0.423063
-0.36623
-0.365584
-0.365323
-0.365088
-0.364875
-0.364684
-0.364511
-0.364355
-0.364215
-0.364089
-0.363977
-0.363877
-0.363789
-0.363714
-0.36365
-0.3636
-0.363563
-0.363542
-0.363538
-0.363554
-0.363593
-0.363661
-0.363762
-0.363902
-0.364088
-0.36433
-0.364636
-0.365015
-0.365479
-0.366036
-0.366697
-0.367473
-0.368385
-0.369478
-0.370826
-0.371941
-0.363994
-0.37187
-1.23288
-0.418321
-0.364383
-0.363791
-0.363563
-0.363357
-0.363171
-0.363004
-0.362852
-0.362716
-0.362593
-0.362484
-0.362386
-0.362299
-0.362224
-0.36216
-0.362107
-0.362066
-0.362038
-0.362026
-0.36203
-0.362054
-0.362101
-0.362176
-0.362284
-0.362432
-0.362626
-0.362877
-0.363193
-0.363584
-0.36406
-0.364628
-0.365289
-0.366038
-0.366853
-0.367692
-0.368446
-0.368245
-0.357471
-0.36391
-1.10312
-0.413284
-0.362773
-0.362233
-0.362032
-0.361852
-0.361688
-0.36154
-0.361407
-0.361287
-0.36118
-0.361084
-0.360998
-0.360923
-0.360858
-0.360804
-0.36076
-0.360727
-0.360707
-0.360702
-0.360713
-0.360743
-0.360797
-0.360878
-0.360992
-0.361147
-0.36135
-0.36161
-0.361938
-0.362344
-0.362838
-0.363425
-0.364102
-0.364845
-0.365602
-0.366262
-0.366599
-0.365681
-0.356144
-0.37372
-1.06104
-0.407657
-0.361061
-0.360578
-0.360407
-0.360253
-0.360114
-0.359988
-0.359875
-0.359773
-0.359682
-0.3596
-0.359528
-0.359465
-0.359412
-0.359368
-0.359333
-0.35931
-0.359298
-0.359301
-0.359319
-0.359356
-0.359416
-0.359504
-0.359626
-0.359788
-0.36
-0.360272
-0.360616
-0.361043
-0.361566
-0.362189
-0.362908
-0.363696
-0.364481
-0.365116
-0.365317
-0.364314
-0.360125
-0.417597
-1.115
-0.401524
-0.35927
-0.358849
-0.358709
-0.358583
-0.358469
-0.358367
-0.358275
-0.358192
-0.358118
-0.358052
-0.357995
-0.357945
-0.357904
-0.35787
-0.357846
-0.357832
-0.357829
-0.35784
-0.357866
-0.35791
-0.357978
-0.358073
-0.358202
-0.358373
-0.358595
-0.358881
-0.359244
-0.359699
-0.360261
-0.360942
-0.361743
-0.362643
-0.363578
-0.364406
-0.364861
-0.364454
-0.368061
-0.490526
-1.25927
-0.394968
-0.357422
-0.357066
-0.356959
-0.356863
-0.356776
-0.356697
-0.356627
-0.356564
-0.356508
-0.356459
-0.356417
-0.356381
-0.356352
-0.356331
-0.356317
-0.356313
-0.356319
-0.356338
-0.356372
-0.356424
-0.356498
-0.356601
-0.356738
-0.356918
-0.357152
-0.357453
-0.357839
-0.358327
-0.358941
-0.359702
-0.360628
-0.36172
-0.362951
-0.364242
-0.365428
-0.366268
-0.376275
-0.566876
-1.45306
-0.388076
-0.355541
-0.355253
-0.35518
-0.355113
-0.355053
-0.355
-0.354952
-0.35491
-0.354872
-0.35484
-0.354814
-0.354792
-0.354776
-0.354767
-0.354764
-0.35477
-0.354786
-0.354813
-0.354855
-0.354914
-0.354996
-0.355106
-0.35525
-0.35544
-0.355685
-0.356003
-0.356414
-0.356941
-0.357618
-0.358481
-0.359573
-0.36094
-0.362623
-0.364663
-0.367089
-0.36966
-0.378458
-0.602474
-1.61723
-0.380938
-0.353649
-0.353431
-0.353391
-0.353355
-0.353323
-0.353294
-0.353269
-0.353248
-0.35323
-0.353215
-0.353204
-0.353197
-0.353194
-0.353197
-0.353206
-0.353222
-0.353247
-0.353282
-0.353332
-0.353399
-0.353488
-0.353605