# vtk DataFile Version 4.0
Nusif Fluid VTK output
ASCII
DATASET STRUCTURED_POINTS
DIMENSIONS 40 30 1
ORIGIN 0 0 0 
SPACING 0.2 0.2 1
POINT_DATA 1200 

VECTORS velocity double
0.00654101 -0.00678698  0
0.0194971 -0.00669618  0
0.0321395 -0.00651001  0
0.0443085 -0.00622492  0
0.0558021 -0.00583547  0
0.0664059 -0.00533527  0
0.0758927 -0.00471844  0
0.0840263 -0.00398166  0
0.0905688 -0.00312683  0
0.0952936 -0.00216344  0
0.0980029 -0.00111071  0
0.0985477 1.79873e-06  0
0.0968474 0.0011352  0
0.0929058 0.00224404  0
0.0868196 0.00328083  0
0.0787767 0.00420179  0
0.0690436 0.00497194  0
0.0579453 0.0055681  0
0.0458415 0.00597834  0
0.0331086 0.00619819  0
0.0201288 0.00622606  0
0.00728769 0.0060604  0
-0.00502585 0.00569911  0
-0.016421 0.0051426  0
-0.0265147 0.00439806  0
-0.0349506 0.00348523  0
-0.0414253 0.0024372  0
-0.0457121 0.00129766  0
-0.0476773 0.000115961  0
-0.0472867 -0.00105789  0
-0.0446028 -0.00217721  0
-0.0397773 -0.00319923  0
-0.0330513 -0.00407748  0
-0.0247835 -0.00474083  0
-0.0155379 -0.00505508  0
-0.00624296 -0.00478996  0
0.00167099 -0.00367383  0
0.00644542 -0.00165019  0
0.00675085 0.000795413  0
0.00284041 0.00256584  0
0.00663231 -0.0204879  0
0.0197752 -0.0202154  0
0.0326125 -0.0196597  0
0.0449854 -0.0188095  0
0.0566947 -0.0176475  0
0.0675263 -0.0161529  0
0.0772501 -0.0143058  0
0.0856221 -0.0120937  0
0.0923913 -0.00951978  0
0.097314 -0.0066106  0
0.100173 -0.00342304  0
0.100798 -4.66861e-05  0
0.0990943 0.00339853  0
0.0950566 0.00677157  0
0.0887836 0.00992476  0
0.0804753 0.0127219  0
0.0704185 0.0150554  0
0.0589601 0.0168562  0
0.0464783 0.0180919  0
0.03336 0.0187532  0
0.0199913 0.0188381  0
0.00675773 0.0183425  0
-0.00594931 0.0172577  0
-0.017729 0.0155797  0
-0.0281785 0.0133257  0
-0.0369166 0.010554  0
-0.0436169 0.00736623  0
-0.0480366 0.00389819  0
-0.0500364 0.000303546  0
-0.0495869 -0.00326268  0
-0.046764 -0.00665638  0
-0.0417404 -0.0097462  0
-0.0347825 -0.012391  0
-0.0262765 -0.0143775  0
-0.0168103 -0.0153063  0
-0.00732391 -0.0144957  0
0.000761401 -0.0111425  0
0.00571665 -0.00508576  0
0.00625601 0.00221227  0
0.00266118 0.00748085  0
0.00681432 -0.0345002  0
0.0203267 -0.0340499  0
0.0335471 -0.0331354  0
0.0463234 -0.0317371  0
0.0584622 -0.0298232  0
0.0697516 -0.027354  0
0.0799564 -0.0242892  0
0.0888171 -0.020599  0
0.0960569 -0.0162793  0
0.101396 -0.0113676  0
0.104573 -0.00595629  0
0.105376 -0.000197838  0
0.103675 0.00569812  0
0.0994452 0.0114809  0
0.0927903 0.016885  0
0.0839366 0.0216657  0
0.0732147 0.0256337  0
0.0610197 0.0286758  0
0.0477689 0.0307502  0
0.0338707 0.0318566  0
0.0197162 0.0320029  0
0.00568862 0.0311841  0
-0.00781976 0.0293781  0
-0.0203882 0.0265553  0
-0.0315705 0.0227301  0
-0.0409319 0.0179967  0
-0.0480952 0.0125336  0
-0.0527838 0.00658446  0
-0.0548464 0.000424653  0
-0.054264 -0.00567061  0
-0.0511418 -0.0114479  0
-0.0456952 -0.0166788  0
-0.0382422 -0.0211227  0
-0.029223 -0.0244241  0
-0.0192734 -0.025928  0
-0.00936065 -0.024525  0
-0.000896761 -0.0189135  0
0.00443434 -0.00885146  0
0.0054143 0.00320901  0
0.00236329 0.0118806  0
0.0070832 -0.0489674  0
0.0211403 -0.0483493  0
0.034925 -0.0470967  0
0.0482978 -0.0451815  0
0.0610781 -0.042555  0
0.0730609 -0.0391519  0
0.0840058 -0.0348992  0
0.0936326 -0.029735  0
0.101624 -0.0236329  0
0.107639 -0.0166288  0
0.111347 -0.00884363  0
0.112462 -0.000496037  0
0.110793 0.00809927  0
0.106284 0.016553  0
0.0990395 0.0244481  0
0.0893327 0.0314008  0
0.0775678 0.0371244  0
0.0642214 0.0414656  0
0.0497752 0.0443959  0
0.0346712 0.0459516  0
0.019305 0.0461691  0
0.00404951 0.0450442  0
-0.0107081 0.0425278  0
-0.0245165 0.0385245  0
-0.0368554 0.0330219  0
-0.0471971 0.0261459  0
-0.0550805 0.0181689  0
-0.0601738 0.0094701  0
-0.0623093 0.000477401  0
-0.0614875 -0.0083867  0
-0.0578611 -0.016739  0
-0.0517132 -0.0242401  0
-0.0434422 -0.0305424  0
-0.0335722 -0.0351497  0
-0.0228142 -0.0371655  0
-0.0121845 -0.0350847  0
-0.00309777 -0.0271584  0
0.00280816 -0.0130966  0
0.0043878 0.00364234  0
0.0020081 0.0156256  0
0.00743284 -0.0640562  0
0.022197 -0.0632834  0
0.0367133 -0.0617217  0
0.0508635 -0.0593379  0
0.0644902 -0.0560652  0
0.0774058 -0.0518013  0
0.0893715 -0.0464236  0
0.100082 -0.0398137  0
0.109163 -0.0318961  0
0.116189 -0.0226806  0
0.120719 -0.0123044  0
0.122354 -0.00105821  0
0.120802 0.0106116  0
0.115948 0.0221347  0
0.107905 0.0328858  0
0.0970126 0.0422956  0
0.0837817 0.0499578  0
0.0688066 0.0556849  0
0.0526637 0.0594975  0
0.0358434 0.0615105  0
0.0187472 0.0618114  0
0.00173265 0.0604083  0
-0.0148186 0.0572051  0
-0.0304036 0.0519711  0
-0.0443855 0.0446268  0
-0.0560994 0.0353294  0
-0.0649667 0.0244709  0
-0.0705827 0.0126124  0
-0.0727606 0.000383606  0
-0.0715323 -0.0116069  0
-0.0671213 -0.0228189  0
-0.0599092 -0.0327823  0
-0.0504096 -0.0410326  0
-0.0392658 -0.0469343  0
-0.0272975 -0.0493673  0
-0.0156013 -0.0464679  0
-0.00561877 -0.0361023  0
0.00104885 -0.0179827  0
0.00332936 0.00341275  0
0.00165142 0.0186572  0
0.00785535 -0.07992  0
0.0234708 -0.0790048  0
0.0388632 -0.0771687  0
0.0539457 -0.0743863  0
0.0686048 -0.0705694  0
0.082691 -0.0655692  0
0.0959803 -0.0591851  0
0.108147 -0.0512069  0
0.118748 -0.0414652  0
0.127237 -0.029906  0
0.133014 -0.0166618  0
0.135504 -0.00210158  0
0.134266 0.0131697  0
0.129095 0.0283267  0
0.120102 0.042454  0
0.107713 0.0547342  0
0.0925629 0.0646238  0
0.0753813 0.0719008  0
0.0568673 0.0766705  0
0.0375845 0.0791736  0
0.0179756 0.0795799  0
-0.0015864 0.0779396  0
-0.0206954 0.0740582  0
-0.0387442 0.0674777  0
-0.0549245 0.0580111  0
-0.0684009 0.0458655  0
-0.0784657 0.0315958  0
-0.0846373 0.0160043  0
-0.0867222 -1.5357e-05  0
-0.0848069 -0.0156211  0
-0.0792109 -0.0300806  0
-0.0704475 -0.0427638  0
-0.0591878 -0.0530772  0
-0.0462381 -0.060249  0
-0.0325694 -0.0629539  0
-0.0193977 -0.0590115  0
-0.00822568 -0.0459733  0
-0.000635181 -0.0236289  0
0.00238096 0.00250261  0
0.00134373 0.0210216  0
0.0083408 -0.0966945  0
0.0249256 -0.0956397  0
0.0412962 -0.0935647  0
0.0574183 -0.0904694  0
0.0732543 -0.0862588  0
0.0887274 -0.080719  0
0.103662 -0.073541  0
0.117726 -0.0643659  0
0.130403 -0.0528665  0
0.140988 -0.0388597  0
0.148657 -0.0224359  0
0.152593 -0.00403616  0
0.152122 0.0155304  0
0.14689 0.0350859  0
0.136996 0.0532996  0
0.122944 0.0690454  0
0.105447 0.0816781  0
0.0853129 0.0908892  0
0.0633731 0.0968609  0
0.0403361 0.10002  0
0.0167999 0.100595  0
-0.00672648 0.0987324  0
-0.0296561 0.094026  0
-0.051123 0.0857496  0
-0.0700899 0.07361  0
-0.0855846 0.0579589  0
-0.0968431 0.0395483  0
-0.103367 0.0194706  0
-0.104999 -0.00104088  0
-0.101907 -0.0208779  0
-0.0945254 -0.0390759  0
-0.0835389 -0.0547926  0
-0.0698294 -0.0672898  0
-0.0544167 -0.0756678  0
-0.0384683 -0.0784186  0
-0.0233621 -0.0730902  0
-0.0106975 -0.056997  0
-0.00205558 -0.0301049  0
0.00166665 0.000972435  0
0.00112832 0.0228598  0
0.0088718 -0.114489  0
0.0264914 -0.113272  0
0.0438693 -0.110961  0
0.0610449 -0.107651  0
0.0781066 -0.103257  0
0.0951144 -0.0974869  0
0.111995 -0.089875  0
0.128461 -0.0798492  0
0.143937 -0.0668234  0
0.157535 -0.0503752  0
0.168138 -0.0304838  0
0.174588 -0.00766305  0
0.175856 0.0170701  0
0.171315 0.0420295  0
0.160987 0.0652875  0
0.145443 0.0853634  0
0.125284 0.101736  0
0.101169 0.113797  0
0.0740679 0.121704  0
0.0449333 0.12606  0
0.0147545 0.126986  0
-0.0154293 0.124769  0
-0.0443742 0.118582  0
-0.0706213 0.107625  0
-0.0928806 0.0916763  0
-0.110267 0.0714915  0
-0.122239 0.0479637  0
-0.128417 0.0224734  0
-0.12879 -0.00331988  0
-0.123665 -0.0280996  0
-0.113576 -0.0506061  0
-0.0994237 -0.0696782  0
-0.0823825 -0.0844295  0
-0.0637376 -0.0938597  0
-0.0448799 -0.0963064  0
-0.0273671 -0.0890957  0
-0.0129118 -0.0693865  0
-0.00310647 -0.0374375  0
0.00125806 -0.00105541  0
0.00102965 0.0243811  0
0.00939618 -0.133352  0
0.0280027 -0.131872  0
0.0462481 -0.129267  0
0.0642821 -0.12584  0
0.0824126 -0.121549  0
0.100927 -0.116008  0
0.119947 -0.108548  0
0.13933 -0.0983191  0
0.158536 -0.0843314  0
0.17649 -0.0657155  0
0.19169 -0.0422428  0
0.202567 -0.0145269  0
0.207481 0.0164531  0
0.205135 0.0482358  0
0.195361 0.0778855  0
0.178928 0.103452  0
0.156 0.125445  0
0.126606 0.142299  0
0.0917088 0.153907  0
0.0525342 0.160878  0
0.0109178 0.162676  0
-0.0306274 0.159521  0
-0.0691042 0.149964  0
-0.10192 0.134016  0
-0.127665 0.112002  0
-0.146144 0.0857433  0
-0.157607 0.0558574  0
-0.161974 0.0238349  0
-0.159617 -0.00795378  0
-0.151098 -0.0383981  0
-0.136931 -0.0658482  0
-0.118307 -0.0884949  0
-0.0968651 -0.105378  0
-0.0741908 -0.115512  0
-0.051855 -0.11713  0
-0.0315359 -0.107387  0
-0.0150144 -0.0833534  0
-0.00390111 -0.0456681  0
0.00109206 -0.00346064  0
0.0010284 0.0257993  0
0.00977047 -0.153124  0
0.0289746 -0.151157  0
0.04755 -0.148091  0
0.0658371 -0.14463  0
0.0844773 -0.140825  0
0.104102 -0.136168  0
0.12516 -0.129764  0
0.147857 -0.120484  0
0.171916 -0.106734  0
0.19606 -0.0867133  0
0.218228 -0.0599167  0
0.236574 -0.0273803  0
0.24829 0.0113698  0
0.25024 0.0524097  0
0.241953 0.0904723  0
0.225408 0.122545  0
0.199939 0.153447  0
0.164115 0.178217  0
0.118528 0.197181  0
0.0639975 0.210016  0
0.00382007 0.214043  0
-0.0558432 0.208075  0
-0.10816 0.190913  0
-0.149282 0.165713  0
-0.178065 0.133543  0
-0.195947 0.0992685  0
-0.205052 0.0616072  0
-0.205434 0.0215374  0
-0.198303 -0.016439  0
-0.184894 -0.0531328  0
-0.165022 -0.0864425  0
-0.140231 -0.112606  0
-0.113189 -0.131043  0
-0.085831 -0.141172  0
-0.0597098 -0.141217  0
-0.0364001 -0.128216  0
-0.0175838 -0.0991481  0
-0.00488244 -0.0549738  0
0.000930697 -0.00624687  0
0.0010549 0.0272398  0
0.00958924 -0.173095  0
0.0281908 -0.170251  0
0.0457594 -0.166438  0
0.0629598 -0.16307  0
0.0809122 -0.160279  0
0.100718 -0.157447  0
0.123266 -0.153395  0
0.149378 -0.146968  0
0.179495 -0.135732  0
0.211725 -0.115397  0
0.242934 -0.0859201  0
0.272594 -0.0506954  0
0.295065 -0.000813608  0
0.302059 0.0543455  0
0.293959 0.103617  0
0.277971 0.140622  0
0.250649 0.186857  0
0.208336 0.221646  0
0.151948 0.25443  0
0.0779114 0.280042  0
-0.0081942 0.289012  0
-0.091855 0.275139  0
-0.160114 0.243128  0
-0.210554 0.203767  0
-0.241312 0.15374  0
-0.255636 0.109983  0
-0.260578 0.0636409  0
-0.254915 0.0129216  0
-0.241652 -0.0295135  0
-0.223917 -0.0725022  0
-0.197829 -0.114332  0
-0.165015 -0.143621  0
-0.131121 -0.162262  0
-0.0986115 -0.171118  0
-0.0687121 -0.168587  0
-0.0424962 -0.151666  0
-0.0212302 -0.117074  0
-0.00650382 -0.0657681  0
0.000581543 -0.00964282  0
0.00107631 0.0287251  0
0.00804601 -0.191353  0
0.0233066 -0.187128  0
0.0372485 -0.182372  0
0.0511345 -0.179526  0
0.066652 -0.1786  0
0.0855129 -0.179101  0
0.108829 -0.178916  0
0.138046 -0.178089  0
0.175306 -0.173308  0
0.215435 -0.151491  0
0.253736 -0.120635  0
0.298988 -0.0921976  0
0.33417 -0.0182517  0
0.339089 0.0586039  0
0.32363 0.121651  0
0.312333 0.1486  0
0.284506 0.232755  0
0.234017 0.267292  0
0.176047 0.32187  0
0.0869604 0.374433  0
-0.0248619 0.391244  0
-0.127911 0.358292  0
-0.20575 0.304757  0
-0.269195 0.254748  0
-0.302303 0.165357  0
-0.30545 0.114547  0
-0.304784 0.0620521  0
-0.293255 -0.00398737  0
-0.276768 -0.0436613  0
-0.263134 -0.0910207  0
-0.234928 -0.151393  0
-0.192503 -0.183096  0
-0.150502 -0.19998  0
-0.111954 -0.205757  0
-0.0778164 -0.199284  0
-0.0484976 -0.177804  0
-0.0246566 -0.137342  0
-0.00775344 -0.0784279  0
0.000755831 -0.0138754  0
0.00138429 0.0305366  0
0.00399722 -0.204029  0
0.0111976 -0.198197  0
0.017745 -0.193096  0
0.025933 -0.192182  0
0.0376869 -0.194525  0
0.0558579 -0.20152  0
0.0796932 -0.204955  0
0.110549 -0.213443  0
0.155257 -0.221212  0
0.195367 -0.185081  0
0.228244 -0.159496  0
0.292901 -0.16449  0
0.330881 -0.0200354  0
0.312893 0.0728395  0
0.280174 0.154983  0
0.300562 0.105263  0
0.270881 0.33268  0
0.184974 0.30281  0
0.146925 0.381094  0
0.0693197 0.480636  0
-0.0390438 0.503945  0
-0.125796 0.43411  0
-0.190483 0.370234  0
-0.290924 0.351914  0
-0.33666 0.145747  0
-0.306773 0.106133  0
-0.297377 0.0591296  0
-0.286162 -0.0250795  0
-0.279912 -0.0465631  0
-0.292636 -0.0902838  0
-0.273981 -0.200263  0
-0.221279 -0.230627  0
-0.17142 -0.245584  0
-0.124329 -0.247087  0
-0.0828298 -0.234893  0
-0.0480758 -0.207572  0
-0.0211308 -0.159665  0
-0.00360833 -0.0918339  0
0.00423327 -0.0181227  0
0.00290832 0.0341774  0
-0.00343831 -0.205228  0
-0.00995192 -0.198978  0
-0.0136922 -0.19643  0
-0.0115728 -0.200468  0
-0.00332515 -0.207549  0
0.0179257 -0.229215  0
0.0407539 -0.225216  0
0.0670185 -0.251563  0
0.112172 -0.273853  0
0.137587 -0.198566  0
0.147369 -0.1893  0
0.157665 -0.210235  0
0.192583 -0.111394  0
0.218018 0.041672  0
0.234969 0.119779  0
0.261404 0.0623608  0
0.200972 0.360527  0
0.140541 0.316089  0
0.119338 0.426413  0
0.0652674 0.566376  0
-0.00119903 0.592414  0
-0.050173 0.480759  0
-0.0881677 0.4257  0
-0.168114 0.476223  0
-0.229697 0.128095  0
-0.226814 0.0903778  0
-0.211805 0.0498571  0
-0.210588 -0.0288539  0
-0.236786 -0.0234405  0
-0.294086 -0.0439916  0
-0.296016 -0.264229  0
-0.239822 -0.276826  0
-0.190757 -0.299573  0
-0.132411 -0.299798  0
-0.0765943 -0.280782  0
-0.0298154 -0.244511  0
0.00218098 -0.182965  0
0.0149645 -0.100137  0
0.0147349 -0.0187309  0
0.00655442 0.0429868  0
-0.0137011 -0.188735  0
-0.0366961 -0.187261  0
-0.0482928 -0.194121  0
-0.0499608 -0.20452  0
-0.0464495 -0.216527  0
-0.0194637 -0.269721  0
-0.00149762 -0.226439  0
-0.00764073 -0.27106  0
0.0143652 -0.285421  0
0.0874942 -0.0990257  0
0.153461 -0.0997979  0
0.162985 -0.105117  0
0.0788326 -0.105117  0
0 0  0
0.130702 0.0311804  0
0.261404 0.0311804  0
0.200972 0.158045  0
0.0747773 0.158045  0
-0.0222392 0.223808  0
-0.0239313 0.299622  0
0.0503557 0.313007  0
0.0386739 0.248067  0
-0.106875 0.22416  0
-0.0101296 0.266775  0
-0.00454175 0.0661753  0
-0.181632 0.0416197  0
-0.159085 0.020993  0
-0.187647 -0.0110999  0
-0.244768 -0.00194803  0
-0.236639 -0.153301  0
-0.219288 -0.300366  0
-0.217115 -0.299694  0
-0.188691 -0.355169  0
-0.126367 -0.366157  0
-0.0540095 -0.343871  0
0.0109988 -0.294477  0
0.0514644 -0.20673  0
0.0510765 -0.0900404  0
0.0300175 -0.00881754  0
0.0105444 0.0594349  0
-0.0233965 -0.152286  0
-0.0566463 -0.16877  0
-0.0647582 -0.194186  0
-0.0735405 -0.194934  0
-0.0845076 -0.219277  0
-0.0849509 -0.294122  0
-0.0209137 -0.257209  0
0.0177414 -0.13553  0
-0.00382037 -0.13553  0
0 0  0
0 0  0
0 0  0
0 0  0
0 0  0
0 0  0
0 0  0
0 0  0
0 0  0
0 0  0
0 0  0
0 0  0
0 0  0
0 0  0
0 0  0
0 0  0
0 0  0
0 0  0
0 0  0
0 0  0
-0.109644 -0.150183  0
-0.218537 -0.150183  0
-0.166045 -0.341813  0
-0.114303 -0.381759  0
-0.0840923 -0.432764  0
-0.0182702 -0.416404  0
0.0489339 -0.355422  0
0.094116 -0.232685  0
0.0790531 -0.049893  0
0.0341392 0.0157351  0
0.00893902 0.0782879  0
-0.0243233 -0.105216  0
-0.0498373 -0.158359  0
-0.051028 -0.196224  0
-0.0503345 -0.190317  0
-0.0296517 -0.109417  0
-0.0473067 -0.147061  0
-0.0424755 -0.147061  0
0 0  0
0 0  0
0 0  0
0 0  0
0 0  0
0 0  0
0 0  0
0 0  0
0 0  0
0 0  0
0 0  0
0 0  0
0 0  0
0 0  0
0 0  0
0 0  0
0 0  0
0 0  0
0 0  0
0 0  0
0 0  0
0 0  0
0 0  0
0 0  0
-0.0571513 -0.190879  0
-0.0736949 -0.190879  0
-0.00870866 -0.457656  0
0.0156698 -0.452337  0
0.0265799 -0.398242  0
0.0383823 -0.247477  0
0.0343746 -0.016662  0
0.016944 0.0442064  0
0.00220665 0.0891271  0
-0.00142331 -0.0797965  0
-0.00284661 -0.157474  0
-0.0269373 -0.176849  0
-0.025514 -0.0981118  0
0 0  0
0 0  0
0 0  0
0 0  0
0 0  0
0 0  0
0 0  0
0 0  0
0 0  0
0 0  0
0 0  0
0 0  0
0 0  0
0 0  0
0 0  0
0 0  0
0 0  0
0 0  0
0 0  0
0 0  0
0 0  0
0 0  0
0 0  0
0 0  0
0 0  0
0 0  0
0 0  0
0 0  0
0 0  0
0.00783492 -0.226169  0
-0.00592255 -0.226169  0
-0.075404 -0.204576  0
-0.160313 -0.124185  0
-0.118179 -0.00588099  0
-0.0346039 0.0283685  0
-0.0150917 0.0456669  0
0.038127 -0.0391866  0
0.0367037 -0.0787369  0
-0.00142331 -0.0787369  0
0 0  0
0 0  0
0 0  0
0 0  0
0 0  0
0 0  0
0 0  0
0 0  0
0 0  0
0 0  0
0 0  0
0 0  0
0 0  0
0 0  0
0 0  0
0 0  0
0 0  0
0 0  0
0 0  0
0 0  0
0 0  0
0 0  0
0 0  0
0 0  0
0 0  0
0 0  0
0 0  0
0 0  0
0 0  0
0 0  0
0 0  0
0 0  0
0 0  0
0 0  0
0 0  0
0 0  0
0 0  0
0 0  0
0 0  0
0 0  0
0 0  0
0 0  0
0 0  0
0 0  0
0 0  0
0 0  0
0 0  0
0 0  0
0 0  0
0 0  0
0 0  0
0 0  0
0 0  0
0 0  0
0 0  0
0 0  0
0 0  0
0 0  0
0 0  0
0 0  0
0 0  0
0 0  0
0 0  0
0 0  0
0 0  0
0 0  0
0 0  0
0 0  0
0 0  0
0 0  0
0 0  0
0 0  0
0 0  0
0 0  0
0 0  0
0 0  0
0 0  0
0 0  0
0 0  0
0 0  0
0 0  0
0 0  0
0 0  0
0 0  0
0 0  0
0 0  0
0 0  0
0 0  0
0 0  0
0 0  0
0 0  0
0 0  0
0 0  0
0 0  0
0 0  0
0 0  0
0 0  0
0 0  0
0 0  0
0 0  0
0 0  0
0 0  0
0 0  0
0 0  0
0 0  0
0 0  0
0 0  0
0 0  0
0 0  0
0 0  0
0 0  0
0 0  0
0 0  0
0 0  0
0 0  0
0 0  0
0 0  0
0 0  0
0 0  0
0 0  0
0 0  0
0 0  0
0 0  0
0 0  0
0 0  0
0 0  0
0 0  0
0 0  0
0 0  0
0 0  0
0 0  0
0 0  0
0 0  0
0 0  0
0 0  0
0 0  0
0 0  0
0 0  0
0 0  0
0 0  0
0 0  0
0 0  0
0 0  0
0 0  0
0 0  0
0 0  0
0 0  0
0 0  0
0 0  0
0 0  0
0 0  0
0 0  0
0 0  0
0 0  0
0 0  0
0 0  0
0 0  0
0 0  0
0 0  0
0 0  0
0 0  0
0 0  0
0 0  0
0 0  0
0 0  0
0 0  0
0 0  0
0 0  0
0 0  0
0 0  0
0 0  0
0 0  0
0 0  0
0 0  0
0 0  0
0 0  0
0 0  0
0 0  0
0 0  0
0 0  0
0 0  0
0 0  0
0 0  0
0 0  0
0 0  0
0 0  0
0 0  0
0 0  0
0 0  0
0 0  0
0 0  0
0 0  0
0 0  0
0 0  0
0 0  0
0 0  0
0 0  0
0 0  0
0 0  0
0 0  0
0 0  0
0 0  0
0 0  0
0 0  0
0 0  0
0 0  0
0 0  0
0 0  0
0 0  0
0 0  0
0 0  0
0 0  0
0 0  0
0 0  0
0 0  0
0 0  0
0 0  0
0 0  0
0 0  0
0 0  0
0 0  0
0 0  0
0 0  0
0 0  0
0 0  0
0 0  0
0 0  0
0 0  0
0 0  0
0 0  0
0 0  0
0 0  0
0 0  0
0 0  0
0 0  0
0 0  0
0 0  0
0 0  0
0 0  0
0 0  0
0 0  0
0 0  0
0 0  0
0 0  0
0 0  0
0 0  0
0 0  0
0 0  0
0 0  0
0 0  0
0 0  0
0 0  0
0 0  0
0 0  0
0 0  0
0 0  0
0 0  0
0 0  0
0 0  0
0 0  0
0 0  0
0 0  0
0 0  0
0 0  0
0 0  0
0 0  0
0 0  0
0 0  0
0 0  0
0 0  0
0 0  0
0 0  0
0 0  0
0 0  0
0 0  0
0 0  0
0 0  0
0 0  0
0 0  0
0 0  0
0 0  0
0 0  0
0 0  0
0 0  0
0 0  0
0 0  0
0 0  0
0 0  0
0 0  0
0 0  0
0 0  0
0 0  0
0 0  0
0 0  0
0 0  0
0 0  0
0 0  0
0 0  0
0 0  0
0 0  0
0 0  0
0 0  0
0 0  0
0 0  0
0 0  0
0 0  0
0 0  0
0 0  0
0 0  0
0 0  0
0 0  0
0 0  0
0 0  0
0 0  0
0 0  0
0 0  0
0 0  0
0 0  0
0 0  0
0 0  0
0 0  0
0 0  0
0 0  0
0 0  0
0 0  0
0 0  0
0 0  0
0 0  0
0 0  0
0 0  0
0 0  0
0 0  0
0 0  0
0 0  0
0 0  0
0 0  0
0 0  0
0 0  0
0 0  0
0 0  0
0 0  0
0 0  0
0 0  0
0 0  0
0 0  0
0 0  0
0 0  0
0 0  0
0 0  0
0 0  0
0 0  0
0 0  0
0 0  0
0 0  0
0 0  0
0 0  0
0 0  0
0 0  0
0 0  0
0 0  0
0 0  0
0 0  0
0 0  0
0 0  0
0 0  0
0 0  0
0 0  0
0 0  0
0 0  0
0 0  0
0 0  0
0 0  0
0 0  0
0 0  0
0 0  0
0 0  0
0 0  0
0 0  0
0 0  0
0 0  0
0 0  0
0 0  0
0 0  0
0 0  0
0 0  0
0 0  0
0 0  0
0 0  0
0 0  0
0 0  0
0 0  0
0 0  0
0 0  0
0 0  0
0 0  0
0 0  0
0 0  0
0 0  0
0 0  0
0 0  0
0 0  0
0 0  0
0 0  0
0 0  0
0 0  0
0 0  0
0 0  0
0 0  0
0 0  0
0 0  0
0 0  0
0 0  0
0 0  0
0 0  0
0 0  0
0 0  0
0 0  0
0 0  0
0 0  0
0 0  0
0 0  0
0 0  0
0 0  0
0 0  0
0 0  0
0 0  0
0 0  0
0 0  0
0 0  0
0 0  0
0 0  0
0 0  0
0 0  0
0 0  0
0 0  0
0 0  0
0 0  0
0 0  0
0 0  0
0 0  0
0 0  0
0 0  0
0 0  0
0 0  0
0 0  0
0 0  0
0 0  0
0 0  0
0 0  0
0 0  0
0 0  0
0 0  0
0 0  0
0 0  0
0 0  0
0 0  0
0 0  0
0 0  0
0 0  0
0 0  0
0 0  0
0 0  0
0 0  0
0 0  0
0 0  0
0 0  0
0 0  0
0 0  0
0 0  0
0 0  0
0 0  0
0 0  0
0 0  0
0 0  0
0 0  0
0 0  0
0 0  0

SCALARS pressure double 1
LOOKUP_TABLE default
1.97681
1.97663
1.97584
1.97453
1.97278
1.97073
1.96853
1.96633
1.9643
1.96261
1.9614
1.96078
1.96085
1.96164
1.96312
1.96523
1.96785
1.97084
1.97407
1.9774
1.9807
1.98391
1.98696
1.98986
1.99267
1.99548
1.99833
2.00127
2.00433
2.00748
2.01066
2.01381
2.0168
2.01954
2.02193
2.02389
2.02543
2.02658
2.02738
2.0278
1.78559
1.78542
1.7846
1.78321
1.78137
1.7792
1.77686
1.77453
1.77236
1.77054
1.76921
1.7685
1.76851
1.76927
1.77076
1.77291
1.77561
1.7787
1.78202
1.78543
1.78881
1.79208
1.79515
1.79805
1.80088
1.80368
1.80654
1.80951
1.81261
1.81581
1.81907
1.82228
1.82534
1.82815
1.83059
1.83261
1.83419
1.83537
1.83619
1.83663
1.60278
1.60257
1.60165
1.60011
1.59806
1.59566
1.59307
1.59046
1.58803
1.58595
1.5844
1.58351
1.5834
1.58413
1.58567
1.58795
1.59081
1.59409
1.59762
1.60121
1.60474
1.60811
1.61123
1.61415
1.61696
1.61976
1.62263
1.62565
1.62883
1.63216
1.63555
1.6389
1.64211
1.64505
1.6476
1.64971
1.65137
1.65261
1.65347
1.65392
1.42841
1.4281
1.42701
1.42522
1.42287
1.4201
1.41711
1.41408
1.41123
1.40876
1.40686
1.40573
1.40548
1.40617
1.40778
1.41022
1.41335
1.41694
1.4208
1.42471
1.42849
1.432
1.43515
1.43806
1.44085
1.44364
1.44654
1.44963
1.45293
1.45642
1.46001
1.46359
1.46703
1.47017
1.47291
1.47517
1.47695
1.47828
1.4792
1.47969
1.2625
1.26205
1.26071
1.25857
1.25577
1.25249
1.24894
1.24533
1.24191
1.23892
1.23659
1.23507
1.23453
1.23511
1.23682
1.23954
1.24309
1.24722
1.2516
1.25595
1.26001
1.26371
1.26692
1.26983
1.27256
1.27528
1.27813
1.28126
1.28472
1.28846
1.29237
1.29628
1.30005
1.30351
1.30653
1.30902
1.31098
1.31245
1.31346
1.31399
1.10512
1.10448
1.10279
1.10016
1.0968
1.09284
1.08857
1.0842
1.08004
1.07629
1.07323
1.07111
1.07022
1.07068
1.07254
1.07569
1.07988
1.08476
1.08989
1.09484
1.09941
1.1034
1.1066
1.10934
1.11184
1.11436
1.11715
1.12036
1.12404
1.12811
1.13245
1.13686
1.14112
1.14504
1.14845
1.15127
1.15348
1.15514
1.15627
1.15687
0.956363
0.955464
0.95332
0.950154
0.946019
0.941227
0.935957
0.930559
0.9253
0.92052
0.916524
0.913668
0.912131
0.912392
0.914457
0.918224
0.923383
0.929352
0.935542
0.941571
0.946815
0.950941
0.953967
0.956384
0.958468
0.960682
0.963291
0.966501
0.970485
0.975084
0.980052
0.985153
0.990117
0.994679
0.998643
1.00191
1.00449
1.00642
1.00775
1.00843
0.816344
0.815138
0.812578
0.808581
0.803512
0.797512
0.790988
0.784197
0.777555
0.771395
0.766122
0.762013
0.759648
0.759479
0.761817
0.766508
0.772986
0.780588
0.788653
0.796027
0.802119
0.806324
0.808954
0.810643
0.812043
0.813612
0.815866
0.819177
0.823563
0.828861
0.834791
0.84092
0.84686
0.852318
0.857078
0.861018
0.864118
0.86643
0.867958
0.868742
0.685291
0.683859
0.680495
0.675585
0.669267
0.661858
0.653606
0.644998
0.636473
0.628514
0.621378
0.615582
0.611604
0.610762
0.613414
0.619341
0.627816
0.638074
0.648544
0.658049
0.665337
0.66928
0.670983
0.671588
0.671666
0.672232
0.674023
0.677287
0.682366
0.688812
0.696113
0.703708
0.711119
0.717917
0.723809
0.728649
0.732421
0.735177
0.737007
0.737922
0.563571
0.561594
0.557478
0.551409
0.543583
0.53427
0.523828
0.512764
0.50175
0.491363
0.481721
0.473111
0.466458
0.464242
0.467238
0.475113
0.486407
0.500301
0.51447
0.526924
0.535775
0.538732
0.538961
0.53788
0.535995
0.535041
0.536041
0.539488
0.545505
0.553675
0.563266
0.573124
0.582616
0.591301
0.5988
0.604879
0.609547
0.612892
0.61504
0.616093
0.451429
0.448934
0.44384
0.43637
0.426771
0.415128
0.401757
0.387324
0.372845
0.359527
0.346618
0.333584
0.321285
0.316791
0.320473
0.33186
0.345997
0.36546
0.384337
0.40065
0.410954
0.411845
0.4102
0.40761
0.402873
0.399709
0.39988
0.403615
0.410936
0.422009
0.435186
0.448393
0.46101
0.472402
0.482108
0.489953
0.495814
0.499834
0.502265
0.503393
0.349492
0.346363
0.3401
0.331063
0.319421
0.304993
0.287746
0.268487
0.248574
0.232797
0.216744
0.19673
0.170741
0.164323
0.169975
0.189786
0.201957
0.23271
0.255445
0.274936
0.285246
0.282968
0.28065
0.278527
0.269777
0.264015
0.263278
0.267708
0.276908
0.291955
0.310537
0.328705
0.34587
0.361153
0.374058
0.384271
0.391651
0.396341
0.398869
0.399896
0.258656
0.254677
0.24695
0.236103
0.222407
0.204806
0.182497
0.156169
0.125135
0.11183
0.0962627
0.0661024
0.00378693
0.00528821
0.0109385
0.0586655
0.0363872
0.110438
0.128957
0.1459
0.152419
0.147389
0.148394
0.147968
0.134352
0.128107
0.126758
0.132466
0.143281
0.160658
0.186915
0.212862
0.236829
0.257654
0.274859
0.288186
0.297338
0.302548
0.304808
0.305415
0.180053
0.174831
0.16504
0.15179
0.136616
0.115808
0.08737
0.0535953
-0.0141811
0.00120197
-0.00509698
-0.0198293
0
0
0
0
0
0.0434932
0.0102283
0.0162517
0.0166124
0.00731586
0.010749
0.0299357
0.00201765
-0.00362103
-0.00406627
0.00320572
0.00963055
0.0195775
0.0610554
0.10078
0.133466
0.16148
0.18415
0.20116
0.212151
0.217979
0.219287
0.219255
0.114716
0.107542
0.0944115
0.0768971
0.0625085
0.039127
0.00355612
-0.015028
0
0
0
0
0
0
0
0
0
0
0
0
0
0
0
0
0
0
0
0
0
0
-0.0469569
-0.000263565
0.035789
0.07083
0.0995915
0.121037
0.133815
0.139849
0.140639
0.140243
0.0627472
0.0533686
0.0357775
0.00509212
0.00057993
-0.0180347
0
0
0
0
0
0
0
0
0
0
0
0
0
0
0
0
0
0
0
0
0
0
0
0
0
0
-0.0525497
-0.015157
0.0180033
0.0473059
0.0580462
0.0642379
0.0683687
0.0676287
0.0238595
0.0149514
-0.003128
0
0
0
0
0
0
0
0
0
0
0
0
0
0
0
0
0
0
0
0
0
0
0
0
0
0
0
0
0
0
0
-0.0590797
-0.00537802
-0.000259641
0.00295434
0.00648013
0.00101048
0.000929852
-0.00392288
0
0
0
0
0
0
0
0
0
0
0
0
0
0
0
0
0
0
0
0
0
0
0
0
0
0
0
0
0
0
0
0
0
0
0
0
0
0
0
0
0
0
0
0
0
0
0
0
0
0
0
0
0
0
0
0
0
0
0
0
0
0
0
0
0
0
0
0
0
0
0
0
0
0
0
0
0
0
0
0
0
0
0
0
0
0
0
0
0
0
0
0
0
0
0
0
0
0
0
0
0
0
0
0
0
0
0
0
0
0
0
0
0
0
0
0
0
0
0
0
0
0
0
0
0
0
0
0
0
0
0
0
0
0
0
0
0
0
0
0
0
0
0
0
0
0
0
0
0
0
0
0
0
0
0
0
0
0
0
0
0
0
0
0
0
0
0
0
0
0
0
0
0
0
0
0
0
0
0
0
0
0
0
0
0
0
0
0
0
0
0
0
0
0
0
0
0
0
0
0
0
0
0
0
0
0
0
0
0
0
0
0
0
0
0
0
0
0
0
0
0
0
0
0
0
0
0
0
0
0
0
0
0
0
0
0
0
0
0
0
0
0
0
0
0
0
0
0
0
0
0
0
0
0
0
0
0
0
0
0
0
0
0
0
0
0
0
0
0
0
0
0
0
0
0
0
0
0
0
0
0
0
0
0
0
0
0
0
0
0
0
0
0
0
0
0
0
0
0
0
0
0
0
0
0
0
0
0
0
0
0
0
0
0
0
0
0
0
0
0
0
0
0
0
0
0
0
0
0
0
0
0
0
0
0
0
0
0
0
0
0
0
0
0
0
0
0
0
0
0
0
0
0
0
0
0
0
0
0
0
0
0
0
0
0
0
0
0
0
0
0
0
0
0
0
0
0
0
0
0
0
0
0
0
0
0
0
0
0
0
0
0
0
0
0
0
0
0
0
0
0
0
0
0
0
0
0
0
0
0
0
0
0
0
0
0
0
0
0
0
0
0
0
0
0
0
0
0
0
0
0
0
0
0
0
0
0
0
0
0
0
0
0
0
0
0
0
0
0
0
0
0
0
0
0
0
0
0
0
0
0
0
0
0
0
0
0
0
0
0
0
0
0
0
0
0
0
0
0
0
0
0
0
0
0
0
0
0
0
0
0
0
0
0
0
0
0
0
0
0
0
0
0
0
0
0
0
0
0
0
0
0
0
0
0
0
0
0
SCALARS rhs double 1
LOOKUP_TABLE default
-4.71255
-4.75828
-4.75875
-4.75862
-4.75821
-4.75757
-4.75675
-4.75584
-4.75494
-4.75419
-4.75372
-4.75363
-4.75395
-4.75463
-4.75557
-4.75664
-4.75769
-4.75855
-4.75909
-4.75924
-4.75894
-4.75893
-4.75797
-4.75525
-4.75352
-4.7518
-4.75026
-4.74905
-4.7483
-4.7481
-4.74839
-4.74909
-4.74998
-4.75075
-4.75088
-4.74968
-4.74744
-4.74583
-4.74529
-4.74634
0.242429
0.198188
0.19818
0.198677
0.199376
0.200247
0.201251
0.202318
0.203371
0.204227
0.20479
0.20512
0.204966
0.204277
0.20318
0.201833
0.20045
0.199228
0.19833
0.19784
0.197803
0.197328
0.198225
0.200705
0.202287
0.203908
0.205343
0.206388
0.206858
0.206671
0.206159
0.205305
0.204328
0.203547
0.203415
0.204461
0.206558
0.207834
0.208183
0.206918
0.23968
0.196651
0.196625
0.197071
0.197703
0.198497
0.199427
0.200454
0.201329
0.202152
0.202796
0.203211
0.202894
0.201815
0.200394
0.198877
0.197487
0.196394
0.195644
0.195223
0.195139
0.194181
0.19559
0.198023
0.199681
0.201333
0.202691
0.203564
0.203808
0.203426
0.202952
0.202206
0.201399
0.200873
0.201092
0.202494
0.204997
0.206675
0.207123
0.206027
0.236625
0.19505
0.194986
0.195354
0.19588
0.196583
0.197366
0.198053
0.198999
0.199724
0.1997
0.19922
0.198422
0.197589
0.196665
0.195698
0.194758
0.19377
0.192776
0.192021
0.191985
0.190802
0.193422
0.19542
0.196553
0.197551
0.198526
0.199607
0.200316
0.200273
0.200103
0.199594
0.199111
0.199031
0.199806
0.20175
0.204363
0.206597
0.206911
0.205584
0.23304
0.193135
0.193024
0.193305
0.193806
0.194031
0.194416
0.194904
0.194809
0.19389
0.193111
0.193761
0.194878
0.194043
0.192959
0.191572
0.189952
0.188565
0.187764
0.188208
0.18945
0.186339
0.188473
0.188877
0.189877
0.19182
0.19436
0.196083
0.196241
0.195685
0.195691
0.1956
0.195522
0.19589
0.197234
0.199822
0.203205
0.205386
0.206086
0.204947
0.228982
0.190923
0.190823
0.191242
0.190315
0.190433
0.189532
0.188701
0.187684
0.188173
0.189297
0.189871
0.188016
0.187358
0.185654
0.184099
0.183039
0.182217
0.182978
0.184161
0.181538
0.175726
0.181013
0.18271
0.184442
0.186629
0.187273
0.187985
0.189041
0.189387
0.18973
0.189862
0.190416
0.191765
0.194159
0.197679
0.201706
0.204409
0.205239
0.204235
0.224466
0.188538
0.188627
0.185853
0.186522
0.184364
0.184481
0.183331
0.183575
0.182531
0.180542
0.177409
0.18018
0.176576
0.175295
0.173915
0.172199
0.173531
0.174918
0.170131
0.168628
0.166847
0.172139
0.171548
0.17339
0.173383
0.175988
0.179581
0.179021
0.178925
0.180734
0.182222
0.183766
0.186263
0.190172
0.195088
0.199788
0.202342
0.202924
0.202273
0.219648
0.185569
0.181146
0.184175
0.181702
0.182516
0.179148
0.177906
0.174648
0.172037
0.167425
0.166112
0.162644
0.161634
0.158479
0.156412
0.157652
0.157683
0.150724
0.153514
0.147077
0.145955
0.151402
0.154071
0.15322
0.156999
0.160207
0.161286
0.16314
0.165511
0.167401
0.170677
0.175143
0.179803
0.184786
0.190243
0.195494
0.19896
0.201614
0.201135
0.213412
0.178107
0.183424
0.180639
0.180269
0.176269
0.175002
0.170315
0.165584
0.158123
0.152397
0.139527
0.142214
0.134733
0.132454
0.133037
0.128995
0.120796
0.120491
0.112155
0.0927962
0.103419
0.115318
0.117512
0.125422
0.12894
0.131467
0.140426
0.137355
0.142219
0.149734
0.156473
0.162037
0.168696
0.176739
0.185446
0.193131
0.198351
0.199602
0.19944
0.205041
0.181369
0.179584
0.179212
0.17793
0.175392
0.169889
0.163243
0.153076
0.143114
0.131186
0.112352
0.101077
0.0990527
0.100609
0.100699
0.0828402
0.073934
0.0509958
0.0265921
-0.0317783
0.0187833
0.0436978
0.0611064
0.0809247
0.0909532
0.0985905
0.106375
0.106717
0.115728
0.120341
0.132644
0.145983
0.157285
0.168922
0.181519
0.191252
0.196677
0.198497
0.197967
0.202708
0.180742
0.181625
0.181919
0.178059
0.173379
0.166101
0.154258
0.136223
0.128018
0.117464
0.07372
0.0542213
0.0712917
0.0878763
0.0875468
0.0374423
0.0303587
-0.0394262
-0.140078
-0.261312
-0.120459
-0.0499772
-0.0266657
0.0363913
0.0676953
0.0705997
0.0831687
0.0989929
0.0855627
0.0791833
0.103007
0.124351
0.143909
0.162131
0.175631
0.187464
0.193882
0.196399
0.196251
0.203698
0.186397
0.187862
0.185082
0.17924
0.168517
0.158471
0.136915
0.10577
0.136114
0.130779
-0.000460745
0.0898228
0.147336
0.156048
0.0896451
-0.0639574
0.0791811
-0.0237278
-0.320425
-0.509453
-0.191225
-0.0693791
-0.18951
0.0144512
0.114917
0.121697
0.126061
0.145135
0.0602859
0.0136223
0.066042
0.0989302
0.126242
0.146449
0.161115