# vtk DataFile Version 4.0
Nusif Fluid VTK output
ASCII
DATASET STRUCTURED_POINTS
DIMENSIONS 40 30 1
ORIGIN 0 0 0 
SPACING 0.2 0.2 1
POINT_DATA 1200 

VECTORS velocity double
0.00892912 -0.00932848  0
0.0265308 -0.00901592  0
0.0432745 -0.00841352  0
0.0585623 -0.00755808  0
0.0719362 -0.00649807  0
0.0830407 -0.00528762  0
0.0916295 -0.00398149  0
0.0975635 -0.0026322  0
0.100805 -0.00128843  0
0.101408 5.98385e-06  0
0.0995102 0.00121196  0
0.0953231 0.00229531  0
0.0891193 0.00322827  0
0.0812195 0.00399095  0
0.0719741 0.00457345  0
0.0617414 0.0049777  0
0.0508635 0.00521835  0
0.0396415 0.00532139  0
0.0283177 0.00531986  0
0.0170693 0.00524596  0
0.00601894 0.00512177  0
-0.00473789 0.00495252  0
-0.0150956 0.0047229  0
-0.0249053 0.00440471  0
-0.033957 0.00396543  0
-0.0419824 0.00337877  0
-0.048673 0.00263129  0
-0.0537096 0.0017252  0
-0.056793 0.000678746  0
-0.0576765 -0.000474111  0
-0.0561986 -0.00168218  0
-0.0523204 -0.00287389  0
-0.0461738 -0.00395009  0
-0.0381249 -0.00477591  0
-0.0288427 -0.005183  0
-0.0193328 -0.00500335  0
-0.010847 -0.00415876  0
-0.00457201 -0.00279236  0
-0.00111616 -0.00133955  0
-5.73153e-05 -0.000395326  0
0.00924121 -0.0282397  0
0.0274449 -0.027283  0
0.0447313 -0.0254396  0
0.0604764 -0.0228257  0
0.0742054 -0.0195925  0
0.0855563 -0.0159066  0
0.0942838 -0.0119359  0
0.100255 -0.0078398  0
0.103442 -0.0037647  0
0.103907 0.000157662  0
0.101799 0.00380924  0
0.0973402 0.00708664  0
0.0908184 0.00990484  0
0.0825723 0.0122022  0
0.0729738 0.0139474  0
0.0624052 0.0151457  0
0.0512309 0.0158428  0
0.0397682 0.0161215  0
0.0282633 0.0160879  0
0.0168826 0.0158466  0
0.00572362 0.01547  0
-0.00515115 0.0149756  0
-0.0156661 0.0143126  0
-0.0256882 0.0133873  0
-0.0350062 0.0120936  0
-0.0433347 0.0103462  0
-0.0503399 0.00810214  0
-0.0556737 0.00536786  0
-0.0590102 0.00219992  0
-0.0600805 -0.00129682  0
-0.0587078 -0.0049648  0
-0.0548469 -0.00858437  0
-0.0486337 -0.0118529  0
-0.0404464 -0.0143625  0
-0.030969 -0.0156088  0
-0.0212149 -0.015094  0
-0.0124298 -0.0125914  0
-0.00578521 -0.00853143  0
-0.00188353 -0.00421008  0
-0.000320275 -0.00139895  0
0.00988398 -0.0480442  0
0.0293268 -0.0463802  0
0.0477268 -0.0431805  0
0.064404 -0.0386584  0
0.0788501 -0.0330859  0
0.0906924 -0.0267573  0
0.0996918 -0.0199631  0
0.105731 -0.0129741  0
0.108799 -0.006036  0
0.10898 0.000631585  0
0.106441 0.00683051  0
0.101427 0.0123854  0
0.0942549 0.0171481  0
0.0852989 0.0210086  0
0.0749768 0.0239087  0
0.0637209 0.0258557  0
0.0519431 0.0269316  0
0.0399949 0.0272901  0
0.0281326 0.0271329  0
0.0164995 0.026662  0
0.00513919 0.0260206  0
-0.00595839 0.0252442  0
-0.0167828 0.0242303  0
-0.0272347 0.0227911  0
-0.0370984 0.0207192  0
-0.0460526 0.0178516  0
-0.0537089 0.0141069  0
-0.0596589 0.00949587  0
-0.0635202 0.00411896  0
-0.0649772 -0.00183896  0
-0.0638208 -0.00810196  0
-0.0599914 -0.0142874  0
-0.0536304 -0.0198738  0
-0.0451406 -0.0241685  0
-0.0352384 -0.0263319  0
-0.0249608 -0.0255521  0
-0.0155523 -0.0214764  0
-0.00816311 -0.0148296  0
-0.00338263 -0.0077436  0
-0.000833436 -0.00312748  0
0.0108979 -0.0694969  0
0.0322909 -0.0670073  0
0.0524303 -0.0622389  0
0.0705455 -0.0555382  0
0.0860806 -0.0473329  0
0.0986544 -0.0380719  0
0.108045 -0.0281836  0
0.114163 -0.018057  0
0.117033 -0.0080368  0
0.116767 0.00157161  0
0.11356 0.0104902  0
0.107686 0.0184656  0
0.0995042 0.0252754  0
0.0894454 0.0307485  0
0.077999 0.0347895  0
0.0656769 0.0374047  0
0.0529681 0.0387208  0
0.0402818 0.0389869  0
0.0278919 0.0385397  0
0.0159054 0.0377262  0
0.00427567 0.036798  0
-0.00713037 0.0358222  0
-0.0184116 0.0346101  0
-0.0295233 0.0328274  0
-0.04024 0.030116  0
-0.0501796 0.0262017  0
-0.0588638 0.0209509  0
-0.0657878 0.0143798  0
-0.07048 0.00664288  0
-0.0725513 -0.0019798  0
-0.0717392 -0.0110746  0
-0.0679576 -0.0200706  0
-0.0613543 -0.0281994  0
-0.052369 -0.0344625  0
-0.0417727 -0.0376808  0
-0.0306478 -0.0367501  0
-0.0202513 -0.0312278  0
-0.0117134 -0.0221497  0
-0.00560837 -0.0124536  0
-0.0015932 -0.00612638  0
0.0123458 -0.0934019  0
0.0365125 -0.0898934  0
0.0590972 -0.0832169  0
0.079198 -0.073916  0
0.0962019 -0.0626338  0
0.109732 -0.0500143  0
0.119606 -0.0366455  0
0.125792 -0.0230394  0
0.128362 -0.00963431  0
0.127469 0.00318734  0
0.123339 0.0150709  0
0.116281 0.0256757  0
0.106701 0.0346851  0
0.0951121 0.0418447  0
0.0821036 0.0470058  0
0.0683035 0.0501679  0
0.0543116 0.0515151  0
0.0406199 0.0514272  0
0.0275297 0.050436  0
0.0150968 0.049106  0
0.00314169 0.0478599  0
-0.00865364 0.0468187  0
-0.0205512 0.0456496  0
-0.0325822 0.0437882  0
-0.0445012 0.040649  0
-0.0558339 0.0357995  0
-0.0659736 0.0290361  0
-0.07428 0.0203844  0
-0.0801564 0.0100669  0
-0.0831091 -0.00151959  0
-0.0827968 -0.0137987  0
-0.079091 -0.0259731  0
-0.0721439 -0.0369864  0
-0.0624449 -0.0454987  0
-0.0508436 -0.049981  0
-0.038495 -0.0490622  0
-0.0266881 -0.0422579  0
-0.0165417 -0.0309427  0
-0.00861796 -0.0188283  0
-0.00261734 -0.0109065  0
0.0143057 -0.120704  0
0.0422071 -0.115877  0
0.0680342 -0.106779  0
0.0907051 -0.0942593  0
0.10955 -0.0792723  0
0.124227 -0.0627168  0
0.13464 -0.0453638  0
0.140847 -0.0278475  0
0.143 -0.0106834  0
0.141303 0.00569229  0
0.136002 0.0208621  0
0.127428 0.0343814  0
0.116048 0.0458024  0
0.102478 0.054751  0
0.0874465 0.0610024  0
0.0717352 0.0645454  0
0.0560869 0.0656402  0
0.0410985 0.0648443  0
0.0271071 0.0629625  0
0.0141033 0.0608783  0
0.00173048 0.0592777  0
-0.0105799 0.058369  0
-0.0233049 0.0575845  0
-0.0365668 0.0560094  0
-0.0500872 0.0527308  0
-0.0632696 0.047097  0
-0.0753401 0.0388136  0
-0.0854841 0.0279225  0
-0.0929472 0.014734  0
-0.0970991 -0.000216022  0
-0.0974899 -0.0161572  0
-0.0939249 -0.0320185  0
-0.0865493 -0.0463968  0
-0.0759102 -0.0575594  0
-0.0629587 -0.063606  0
-0.048951 -0.0629265  0
-0.0352301 -0.0550546  0
-0.0229166 -0.0417391  0
-0.0125731 -0.0274324  0
-0.00395948 -0.01805  0
0.0168462 -0.152495  0
0.0495615 -0.145905  0
0.0794952 -0.133638  0
0.105325 -0.117027  0
0.126338 -0.097489  0
0.142292 -0.0762589  0
0.153239 -0.0543089  0
0.159389 -0.0323871  0
0.161015 -0.0110501  0
0.158376 0.00926767  0
0.151712 0.0281231  0
0.141341 0.0449354  0
0.127785 0.0590545  0
0.111796 0.069928  0
0.0942925 0.0772297  0
0.0762474 0.080943  0
0.0585697 0.0814368  0
0.0419675 0.0795061  0
0.0268088 0.0763185  0
0.0130058 0.0731967  0
-8.97959e-06 0.0712147  0
-0.0130958 0.0706972  0
-0.0269689 0.0707228  0
-0.0418475 0.0698806  0
-0.057411 0.0668131  0
-0.072922 0.0605782  0
-0.0874153 0.0507669  0
-0.0998794 0.0374486  0
-0.10938 0.0210434  0
-0.115123 0.00224176  0
-0.116511 -0.0179633  0
-0.113241 -0.0381741  0
-0.105421 -0.056564  0
-0.0936447 -0.0709344  0
-0.0789806 -0.0789734  0
-0.0628133 -0.078861  0
-0.0465597 -0.0702218  0
-0.0313574 -0.0552148  0
-0.0177946 -0.0389903  0
-0.0057273 -0.0283004  0
0.0199877 -0.189955  0
0.0586292 -0.180988  0
0.0935268 -0.164507  0
0.123027 -0.142608  0
0.146415 -0.117428  0
0.163653 -0.0906321  0
0.175038 -0.0633885  0
0.18101 -0.0365502  0
0.182029 -0.0106529  0
0.17843 0.013988  0
0.170367 0.0370076  0
0.158042 0.057623  0
0.142013 0.0748294  0
0.123231 0.0877992  0
0.102876 0.096093  0
0.0821526 0.0997224  0
0.0621335 0.0992279  0
0.0436038 0.0957204  0
0.0269244 0.0908157  0
0.0119109 0.0863891  0
-0.0022121 0.0840336  0
-0.0165637 0.0841905  0
-0.0320542 0.0854674  0
-0.0489872 0.0858223  0
-0.0670215 0.0833447  0
-0.085307 0.0767192  0
-0.102693 0.0653816  0
-0.117963 0.049446  0
-0.130009 0.0294711  0
-0.137866 0.00629215  0
-0.140734 -0.0188782  0
-0.13811 -0.0442736  0
-0.129975 -0.0675402  0
-0.116933 -0.0858969  0
-0.100186 -0.0965425  0
-0.0812868 -0.0974786  0
-0.0617385 -0.0885269  0
-0.0426939 -0.0722777  0
-0.0248042 -0.0545011  0
-0.00809704 -0.0426854  0
0.0236971 -0.234253  0
0.0693202 -0.222124  0
0.109934 -0.199994  0
0.143396 -0.171196  0
0.169088 -0.139033  0
0.187382 -0.105672  0
0.198922 -0.0723875  0
0.204466 -0.0401805  0
0.20481 -0.0094998  0
0.200416 0.0197141  0
0.19117 0.047475  0
0.176906 0.072628  0
0.158191 0.0934519  0
0.136333 0.108698  0
0.11289 0.117874  0
0.0893218 0.121113  0
0.0668245 0.119234  0
0.0461699 0.113778  0
0.0276076 0.106879  0
0.0108111 0.101015  0
-0.00513389 0.0983548  0
-0.0214373 0.0994037  0
-0.0390595 0.102247  0
-0.0583895 0.104186  0
-0.0791814 0.102688  0
-0.100574 0.0959358  0
-0.121259 0.0831187  0
-0.139828 0.0644328  0
-0.155053 0.0406399  0
-0.165819 0.0126313  0
-0.171014 -0.018269  0
-0.169709 -0.0499253  0
-0.161583 -0.0792628  0
-0.147221 -0.102692  0
-0.128029 -0.116801  0
-0.105788 -0.119473  0
-0.0820675 -0.110916  0
-0.0579845 -0.0941313  0
-0.0342864 -0.0753504  0
-0.0113024 -0.0626425  0
0.0279851 -0.286535  0
0.0816701 -0.270303  0
0.128612 -0.240477  0
0.16589 -0.202559  0
0.193292 -0.161871  0
0.211981 -0.120923  0
0.222994 -0.0807957  0
0.227484 -0.0429131  0
0.226905 -0.00763988  0
0.222055 0.0259906  0
0.212134 0.0592575  0
0.195968 0.0901666  0
0.174167 0.115318  0
0.148888 0.132857  0
0.122312 0.142622  0
0.0960687 0.145062  0
0.0713442 0.141391  0
0.0487488 0.133756  0
0.02824 0.124857  0
0.0092547 0.117703  0
-0.00912854 0.11488  0
-0.0278681 0.116807  0
-0.0477524 0.121236  0
-0.0693644 0.125026  0
-0.0928261 0.12499  0
-0.117473 0.118562  0
-0.141851 0.104445  0
-0.16429 0.083005  0
-0.183556 0.0554496  0
-0.19848 0.0224037  0
-0.207357 -0.0150771  0
-0.208372 -0.0545143  0
-0.200714 -0.0915646  0
-0.185154 -0.121418  0
-0.163455 -0.140074  0
-0.137509 -0.145494  0
-0.108757 -0.138476  0
-0.0782484 -0.122271  0
-0.0469108 -0.103356  0
-0.015571 -0.0900705  0
0.0329791 -0.348085  0
0.0960529 -0.326647  0
0.149738 -0.285859  0
0.189879 -0.235694  0
0.217568 -0.184927  0
0.235352 -0.135439  0
0.244476 -0.0875158  0
0.246543 -0.0438494  0
0.24431 -0.00499243  0
0.239492 0.0319099  0
0.229699 0.0719519  0
0.211168 0.111068  0
0.184762 0.14152  0
0.155097 0.160493  0
0.125623 0.169929  0
0.0975159 0.170999  0
0.0715254 0.165061  0
0.0479723 0.155125  0
0.0263756 0.144483  0
0.00583031 0.136497  0
-0.0144523 0.133642  0
-0.0348236 0.136046  0
-0.0558116 0.14176  0
-0.0785138 0.147708  0
-0.103905 0.150053  0
-0.131857 0.144993  0
-0.160573 0.130004  0
-0.187559 0.105767  0
-0.211761 0.0750534  0
-0.232398 0.0372593  0
-0.246617 -0.00793674  0
-0.250924 -0.0574327  0
-0.244314 -0.104014  0
-0.228664 -0.141278  0
-0.206108 -0.165571  0
-0.177408 -0.175744  0
-0.142983 -0.172506  0
-0.104316 -0.15852  0
-0.0631211 -0.140743  0
-0.0210272 -0.12722  0
0.0382227 -0.419858  0
0.111273 -0.392115  0
0.170914 -0.33481  0
0.21142 -0.268481  0
0.237165 -0.206667  0
0.252406 -0.147817  0
0.25796 -0.0909089  0
0.255858 -0.0415136  0
0.250913 -0.00124373  0
0.246812 0.035986  0
0.238335 0.0850527  0
0.216116 0.137621  0
0.180884 0.175508  0
0.144053 0.191902  0
0.112695 0.198251  0
0.0848751 0.197502  0
0.0595437 0.188776  0
0.0370574 0.176344  0
0.0168537 0.163959  0
-0.00215161 0.155467  0
-0.0206885 0.152387  0
-0.0387282 0.154608  0
-0.0570623 0.161417  0
-0.0778868 0.170476  0
-0.10369 0.177379  0
-0.135461 0.176291  0
-0.170169 0.161032  0
-0.201951 0.132411  0
-0.230375 0.099941  0
-0.257326 0.058865  0
-0.27824 0.00449713  0
-0.286505 -0.0583865  0
-0.28216 -0.115108  0
-0.270379 -0.158708  0
-0.25312 -0.189049  0
-0.226463 -0.208717  0
-0.18642 -0.215098  0
-0.13683 -0.205282  0
-0.0829612 -0.190142  0
-0.0275889 -0.176386  0
0.0402449 -0.498884  0
0.117284 -0.464279  0
0.177246 -0.383334  0
0.214045 -0.298347  0
0.236369 -0.225956  0
0.248856 -0.157341  0
0.251452 -0.0906205  0
0.246256 -0.0355895  0
0.23924 0.00370626  0
0.236067 0.0372232  0
0.230031 0.0972426  0
0.204825 0.171768  0
0.153312 0.227018  0
0.102719 0.226725  0
0.0732851 0.223124  0
0.0500145 0.222621  0
0.027156 0.210747  0
0.00774205 0.195173  0
-0.00706704 0.179042  0
-0.0176009 0.168822  0
-0.0255882 0.164455  0
-0.0323131 0.166204  0
-0.0404452 0.175189  0
-0.0542152 0.190202  0
-0.0783362 0.206482  0
-0.116338 0.215866  0
-0.161902 0.200636  0
-0.196662 0.158258  0
-0.222219 0.126985  0
-0.252583 0.088048  0
-0.28221 0.0247697  0
-0.296368 -0.0573202  0
-0.296513 -0.12146  0
-0.295054 -0.166682  0
-0.292771 -0.201705  0
-0.279881 -0.236697  0
-0.23791 -0.270225  0
-0.173573 -0.265176  0
-0.104799 -0.253984  0
-0.0346432 -0.239164  0
0.0306815 -0.570086  0
0.0867217 -0.526703  0
0.132196 -0.426888  0
0.166792 -0.326729  0
0.19004 -0.243687  0
0.203508 -0.166107  0
0.210161 -0.0916448  0
0.211715 -0.0314642  0
0.209267 0.00850379  0
0.204255 0.0400684  0
0.198229 0.105918  0
0.181476 0.204508  0
0.104077 0.322649  0
0.0308929 0.254054  0
0.017601 0.237428  0
0.0001207 0.247975  0
-0.0236617 0.230939  0
-0.0409569 0.210594  0
-0.0465302 0.182907  0
-0.0392493 0.167113  0
-0.0246545 0.15846  0
-0.00721186 0.160387  0
0.0055965 0.175236  0
0.00570277 0.202726  0
-0.013651 0.236343  0
-0.0631618 0.27243  0
-0.132655 0.258044  0
-0.168105 0.169975  0
-0.172587 0.144222  0
-0.192685 0.120191  0
-0.23703 0.0657891  0
-0.268004 -0.0537469  0
-0.274248 -0.119186  0
-0.283368 -0.161836  0
-0.291726 -0.201018  0
-0.305478 -0.237064  0
-0.277009 -0.341115  0
-0.199439 -0.337284  0
-0.120747 -0.330431  0
-0.0401785 -0.31453  0
0.00632845 -0.300384  0
0.00984001 -0.276031  0
0.0267698 -0.223502  0
0.0695173 -0.170604  0
0.104839 -0.126227  0
0.124079 -0.085404  0
0.14029 -0.0467984  0
0.15964 -0.0155332  0
0.172219 0.00527713  0
0.15504 0.0215148  0
0.110646 0.0544918  0
0.0427877 0.109098  0
0.0499001 0.324807  0
0.100177 0.263252  0
0.0535143 0.287638  0
-0.0215365 0.289477  0
-0.0605067 0.251097  0
-0.0821755 0.228309  0
-0.0818974 0.169396  0
-0.0555709 0.145924  0
-0.0158821 0.124273  0
0.0322007 0.127957  0
0.0711548 0.154814  0
0.0838627 0.209247  0
0.0707212 0.261231  0
0.00719112 0.359499  0
-0.0962593 0.343108  0
-0.157273 0.180833  0
-0.171066 0.151098  0
-0.174016 0.135822  0
-0.14702 0.115027  0
-0.163152 -0.025608  0
-0.221641 -0.0577363  0
-0.242071 -0.0782145  0
-0.256809 -0.0990333  0
-0.23962 -0.30346  0
-0.212759 -0.380656  0
-0.18168 -0.406938  0
-0.116434 -0.405259  0
-0.0411337 -0.396113  0
0 0  0
0 0  0
0 0  0
0 0  0
0 0  0
0 0  0
0 0  0
0 0  0
0 0  0
0 0  0
0 0  0
0 0  0
0.0500883 0.131626  0
0.0646527 0.131626  0
0.0300237 0.325946  0
0.0309186 0.317592  0
0.0117352 0.28059  0
-0.0480307 0.279706  0
-0.0687907 0.137661  0
-0.0408578 0.122307  0
-0.000543528 0.0667965  0
0.0618398 0.0738787  0
0.117073 0.113618  0
0.107863 0.246133  0
0.0660396 0.278768  0
0.0584818 0.412508  0
0.056827 0.402893  0
-0.0376577 0.0958382  0
-0.143139 0.0770241  0
-0.164903 0.0679111  0
-0.0870081 0.0679111  0
0 0  0
0 0  0
0 0  0
0 0  0
-0.10638 -0.190328  0
-0.184079 -0.190328  0
-0.152295 -0.219009  0
-0.116819 -0.219712  0
-0.0422225 -0.218624  0
0 0  0
0 0  0
0 0  0
0 0  0
0 0  0
0 0  0
0 0  0
0 0  0
0 0  0
0 0  0
0 0  0
0 0  0
0 0  0
0 0  0
0.0154593 0.158796  0
0.0398281 0.158796  0
0.0103868 0.149887  0
0.000377975 0.218927  0
0.0287198 0.117566  0
0.0325086 0.110136  0
0.0390238 0.0315941  0
0.0442816 0.0408962  0
0.0468131 0.0882925  0
0.0572411 0.184345  0
-1.56693e-05 0.143163  0
-0.00460925 0.206254  0
0.0292409 0.206254  0
0 0  0
0 0  0
0 0  0
0 0  0
0 0  0
0 0  0
0 0  0
0 0  0
0 0  0
0 0  0
0 0  0
0 0  0
0 0  0
0 0  0
0 0  0
0 0  0
0 0  0
0 0  0
0 0  0
0 0  0
0 0  0
0 0  0
0 0  0
0 0  0
0 0  0
0 0  0
0 0  0
0 0  0
0 0  0
0 0  0
0.0143599 0.0587828  0
0.0343291 0.0587828  0
0.0768576 0.0531735  0
0.073015 0.0144339  0
0.0145693 0.0191824  0
0.0218493 0.0441462  0
0.0234066 0.0441462  0
0 0  0
0 0  0
0 0  0
0 0  0
0 0  0
0 0  0
0 0  0
0 0  0
0 0  0
0 0  0
0 0  0
0 0  0
0 0  0
0 0  0
0 0  0
0 0  0
0 0  0
0 0  0
0 0  0
0 0  0
0 0  0
0 0  0
0 0  0
0 0  0
0 0  0
0 0  0
0 0  0
0 0  0
0 0  0
0 0  0
0 0  0
0 0  0
0 0  0
0 0  0
0 0  0
0 0  0
0 0  0
0 0  0
0 0  0
0 0  0
0 0  0
0 0  0
0 0  0
0 0  0
0 0  0
0 0  0
0 0  0
0 0  0
0 0  0
0 0  0
0 0  0
0 0  0
0 0  0
0 0  0
0 0  0
0 0  0
0 0  0
0 0  0
0 0  0
0 0  0
0 0  0
0 0  0
0 0  0
0 0  0
0 0  0
0 0  0
0 0  0
0 0  0
0 0  0
0 0  0
0 0  0
0 0  0
0 0  0
0 0  0
0 0  0
0 0  0
0 0  0
0 0  0
0 0  0
0 0  0
0 0  0
0 0  0
0 0  0
0 0  0
0 0  0
0 0  0
0 0  0
0 0  0
0 0  0
0 0  0
0 0  0
0 0  0
0 0  0
0 0  0
0 0  0
0 0  0
0 0  0
0 0  0
0 0  0
0 0  0
0 0  0
0 0  0
0 0  0
0 0  0
0 0  0
0 0  0
0 0  0
0 0  0
0 0  0
0 0  0
0 0  0
0 0  0
0 0  0
0 0  0
0 0  0
0 0  0
0 0  0
0 0  0
0 0  0
0 0  0
0 0  0
0 0  0
0 0  0
0 0  0
0 0  0
0 0  0
0 0  0
0 0  0
0 0  0
0 0  0
0 0  0
0 0  0
0 0  0
0 0  0
0 0  0
0 0  0
0 0  0
0 0  0
0 0  0
0 0  0
0 0  0
0 0  0
0 0  0
0 0  0
0 0  0
0 0  0
0 0  0
0 0  0
0 0  0
0 0  0
0 0  0
0 0  0
0 0  0
0 0  0
0 0  0
0 0  0
0 0  0
0 0  0
0 0  0
0 0  0
0 0  0
0 0  0
0 0  0
0 0  0
0 0  0
0 0  0
0 0  0
0 0  0
0 0  0
0 0  0
0 0  0
0 0  0
0 0  0
0 0  0
0 0  0
0 0  0
0 0  0
0 0  0
0 0  0
0 0  0
0 0  0
0 0  0
0 0  0
0 0  0
0 0  0
0 0  0
0 0  0
0 0  0
0 0  0
0 0  0
0 0  0
0 0  0
0 0  0
0 0  0
0 0  0
0 0  0
0 0  0
0 0  0
0 0  0
0 0  0
0 0  0
0 0  0
0 0  0
0 0  0
0 0  0
0 0  0
0 0  0
0 0  0
0 0  0
0 0  0
0 0  0
0 0  0
0 0  0
0 0  0
0 0  0
0 0  0
0 0  0
0 0  0
0 0  0
0 0  0
0 0  0
0 0  0
0 0  0
0 0  0
0 0  0
0 0  0
0 0  0
0 0  0
0 0  0
0 0  0
0 0  0
0 0  0
0 0  0
0 0  0
0 0  0
0 0  0
0 0  0
0 0  0
0 0  0
0 0  0
0 0  0
0 0  0
0 0  0
0 0  0
0 0  0
0 0  0
0 0  0
0 0  0
0 0  0
0 0  0
0 0  0
0 0  0
0 0  0
0 0  0
0 0  0
0 0  0
0 0  0
0 0  0
0 0  0
0 0  0
0 0  0
0 0  0
0 0  0
0 0  0
0 0  0
0 0  0
0 0  0
0 0  0
0 0  0
0 0  0
0 0  0
0 0  0
0 0  0
0 0  0
0 0  0
0 0  0
0 0  0
0 0  0
0 0  0
0 0  0
0 0  0
0 0  0
0 0  0
0 0  0
0 0  0
0 0  0
0 0  0
0 0  0
0 0  0
0 0  0
0 0  0
0 0  0
0 0  0
0 0  0
0 0  0
0 0  0
0 0  0
0 0  0
0 0  0
0 0  0
0 0  0
0 0  0
0 0  0
0 0  0
0 0  0
0 0  0
0 0  0
0 0  0
0 0  0
0 0  0
0 0  0
0 0  0
0 0  0
0 0  0
0 0  0
0 0  0
0 0  0
0 0  0
0 0  0
0 0  0
0 0  0
0 0  0
0 0  0
0 0  0
0 0  0
0 0  0
0 0  0
0 0  0
0 0  0
0 0  0
0 0  0
0 0  0
0 0  0
0 0  0
0 0  0
0 0  0
0 0  0
0 0  0
0 0  0
0 0  0
0 0  0
0 0  0
0 0  0
0 0  0
0 0  0
0 0  0
0 0  0
0 0  0
0 0  0
0 0  0
0 0  0
0 0  0
0 0  0
0 0  0
0 0  0
0 0  0
0 0  0
0 0  0
0 0  0
0 0  0
0 0  0
0 0  0
0 0  0
0 0  0
0 0  0
0 0  0
0 0  0
0 0  0
0 0  0
0 0  0
0 0  0
0 0  0
0 0  0
0 0  0
0 0  0
0 0  0
0 0  0
0 0  0
0 0  0
0 0  0
0 0  0
0 0  0
0 0  0
0 0  0
0 0  0
0 0  0
0 0  0
0 0  0
0 0  0
0 0  0
0 0  0
0 0  0
0 0  0
0 0  0
0 0  0
0 0  0
0 0  0
0 0  0
0 0  0
0 0  0
0 0  0
0 0  0
0 0  0
0 0  0
0 0  0
0 0  0
0 0  0
0 0  0
0 0  0
0 0  0
0 0  0
0 0  0
0 0  0
0 0  0
0 0  0
0 0  0
0 0  0
0 0  0
0 0  0
0 0  0
0 0  0
0 0  0
0 0  0
0 0  0
0 0  0
0 0  0
0 0  0
0 0  0
0 0  0
0 0  0
0 0  0
0 0  0
0 0  0
0 0  0
0 0  0
0 0  0
0 0  0
0 0  0
0 0  0
0 0  0
0 0  0
0 0  0
0 0  0
0 0  0
0 0  0
0 0  0
0 0  0
0 0  0
0 0  0
0 0  0
0 0  0
0 0  0
0 0  0
0 0  0
0 0  0
0 0  0
0 0  0
0 0  0
0 0  0
0 0  0
0 0  0
0 0  0
0 0  0
0 0  0
0 0  0
0 0  0
0 0  0
0 0  0
0 0  0
0 0  0
0 0  0
0 0  0
0 0  0
0 0  0
0 0  0
0 0  0
0 0  0
0 0  0
0 0  0
0 0  0
0 0  0
0 0  0
0 0  0
0 0  0
0 0  0
0 0  0
0 0  0
0 0  0
0 0  0
0 0  0
0 0  0
0 0  0
0 0  0
0 0  0
0 0  0
0 0  0

SCALARS pressure double 1
LOOKUP_TABLE default
3.60521
3.6061
3.60764
3.60996
3.6132
3.61753
3.62307
3.62992
3.63809
3.64752
3.65809
3.66956
3.68164
3.69396
3.70614
3.71777
3.72845
3.73785
3.74565
3.75165
3.75569
3.75767
3.75762
3.75567
3.752
3.74685
3.74054
3.73339
3.72577
3.71802
3.71044
3.70327
3.6967
3.69083
3.68573
3.68141
3.67793
3.67531
3.67357
3.67271
3.39524
3.39611
3.39763
3.39992
3.40315
3.40748
3.41305
3.41996
3.42825
3.43785
3.44864
3.4604
3.4728
3.48549
3.49804
3.51004
3.52106
3.53075
3.53878
3.54493
3.54905
3.55103
3.5509
3.54879
3.5449
3.53948
3.53285
3.52538
3.51743
3.50937
3.50152
3.49412
3.48738
3.48139
3.47623
3.47191
3.46846
3.46589
3.46421
3.46338
3.17513
3.17597
3.17742
3.17965
3.18281
3.18711
3.19271
3.19974
3.20824
3.21817
3.22941
3.24173
3.25481
3.26823
3.28155
3.29429
3.306
3.31628
3.32478
3.33124
3.33551
3.33748
3.33718
3.33476
3.33041
3.32443
3.31717
3.30902
3.3004
3.29172
3.2833
3.27545
3.26836
3.26216
3.25689
3.25258
3.24921
3.24677
3.24521
3.24445
2.94481
2.9456
2.94694
2.94902
2.95206
2.95629
2.96192
2.9691
2.9779
2.98832
3.00024
3.01344
3.02754
3.04212
3.05663
3.07055
3.08335
3.09455
3.10378
3.11074
3.11525
3.11719
3.11661
3.11368
3.10862
3.10175
3.09349
3.08428
3.0746
3.06492
3.05564
3.04708
3.03948
3.03297
3.02759
3.02333
3.02015
3.01795
3.01661
3.01599
2.70417
2.70486
2.70603
2.70788
2.71071
2.7148
2.72041
2.72775
2.73694
2.74799
2.76085
2.77525
2.79082
2.80703
2.82326
2.83887
2.85321
2.86574
2.876
2.88364
2.88848
2.89037
2.8894
2.88573
2.87964
2.8715
2.8618
2.85107
2.83987
2.82878
2.81827
2.80873
2.80044
2.79355
2.7881
2.78402
2.78121
2.77945
2.77851
2.77812
2.45301
2.45357
2.45445
2.45596
2.45845
2.46229
2.46782
2.4753
2.48493
2.49677
2.51081
2.52681
2.54434
2.56278
2.58136
2.59929
2.61575
2.63008
2.64173
2.6503
2.65556
2.65736
2.65582
2.65113
2.64362
2.63375
2.62209
2.60927
2.59599
2.58296
2.57077
2.55992
2.55077
2.54347
2.53806
2.53442
2.53229
2.5313
2.53102
2.53101
2.19104
2.1914
2.19189
2.19289
2.19488
2.19833
2.20365
2.21122
2.2213
2.23405
2.24954
2.26757
2.28767
2.30908
2.33084
2.35188
2.37119
2.38792
2.4014
2.41117
2.41696
2.4186
2.41627
2.4102
2.40079
2.3886
2.3743
2.35869
2.34262
2.32696
2.31254
2.29999
2.28977
2.28211
2.27698
2.27417
2.27325
2.27357
2.27437
2.27496
1.91781
1.91792
1.91786
1.91816
1.91945
1.92233
1.92731
1.93485
1.94532
1.95904
1.97621
1.99674
2.02014
2.04552
2.07154
2.09676
2.11986
2.13973
2.15559
2.16689
2.1733
2.17468
2.17125
2.16333
2.1514
2.13614
2.11837
2.09906
2.07927
2.06009
2.04268
2.02791
2.01643
2.0085
2.00408
2.0028
2.00394
2.00639
2.00891
2.01043
1.63268
1.63247
1.63169
1.6311
1.63151
1.63365
1.63811
1.64543
1.65613
1.67074
1.6897
1.71317
1.74082
1.77152
1.80331
1.83415
1.86222
1.88617
1.90506
1.91826
1.92539
1.92635
1.92143
1.91103
1.89579
1.8765
1.85419
1.83005
1.80533
1.78138
1.75986
1.74215
1.72919
1.72125
1.7182
1.71955
1.72414
1.73001
1.73519
1.73811
1.33473
1.33415
1.33252
1.33087
1.3303
1.33162
1.33541
1.34226
1.35283
1.36797
1.38852
1.41524
1.44826
1.48628
1.52603
1.56442
1.59901
1.62814
1.6508
1.66633
1.67426
1.67457
1.66762
1.65398
1.63442
1.60988
1.58164
1.55125
1.52008
1.48957
1.46211
1.44046
1.42581
1.41828
1.41761
1.42326
1.43354
1.44485
1.45399
1.45888
1.02262
1.02169
1.01914
1.0165
1.01513
1.01576
1.01885
1.02494
1.0348
1.04959
1.07082
1.10052
1.14021
1.18891
1.23981
1.28841
1.33135
1.36688
1.39412
1.41241
1.4212
1.42055
1.41092
1.39306
1.36794
1.33658
1.3006
1.26236
1.22299
1.18331
1.14656
1.11957
1.10327
1.09679
1.09967
1.11194
1.13183
1.15165
1.16641
1.17386
0.694411
0.69329
0.690106
0.687113
0.685699
0.686178
0.688775
0.693891
0.702162
0.714863
0.734432
0.765215
0.812465
0.878813
0.945499
1.00778
1.061
1.10397
1.13662
1.15816
1.1679
1.16593
1.15275
1.12944
1.0974
1.05721
1.01082
0.963419
0.914658
0.862034
0.808889
0.775293
0.758317
0.753732
0.760651
0.781709
0.818977
0.851973
0.873907
0.884078
0.348025
0.347279
0.344957
0.343557
0.34368
0.344821
0.347161
0.350999
0.356467
0.364378
0.377538
0.403196
0.454576
0.557801
0.645263
0.725785
0.790515
0.841177
0.880262
0.905829
0.916821
0.913021
0.89496
0.864421
0.824352
0.772901
0.710808
0.655015
0.599248
0.529846
0.440426
0.403211
0.389669
0.387637
0.395541
0.422761
0.496765
0.549377
0.578222
0.589934
-0.0157706
-0.0130421
-0.00992859
-0.00704068
-0.00424477
-0.00224015
-0.000874648
0.000278709
0.00106554
0.00147719
0.00142766
0.00654599
0.0302354
0.240356
0.341585
0.449233
0.52321
0.579103
0.627341
0.658737
0.671407
0.66503
0.639636
0.597936
0.550617
0.486573
0.392898
0.337389
0.288795
0.209632
0.0123082
0.00101606
0.00181971
0.0027969
0.00137092
0.00397798
0.17818
0.253043
0.281061
0.28994
0
0
0
0
0
0
0
0
0
0
0
0
0
0.0191052
0.0217563
0.194983
0.262537
0.313312
0.380871
0.420763
0.435356
0.426042
0.389456
0.323761
0.276099
0.210553
0.0232935
0.00517474
0.00139139
0.0018203
0
0
0
0
0
0
-0.0514945
-0.0154336
-0.0171265
-0.0206817
0
0
0
0
0
0
0
0
0
0
0
0
0
0
0
0.0318704
0.00921098
0.0193781
0.151464
0.197307
0.211086
0.201245
0.15387
0.0162043
0.00313063
0.0250681
0
0
0
0
0
0
0
0
0
0
0
0
0
0
0
0
0
0
0
0
0
0
0
0
0
0
0
0
0
0
0
0
0.00353543
-0.00184556
-0.00134394
-0.00119591
-0.00223388
0
0
0
0
0
0
0
0
0
0
0
0
0
0
0
0
0
0
0
0
0
0
0
0
0
0
0
0
0
0
0
0
0
0
0
0
0
0
0
0
0
0
0
0
0
0
0
0
0
0
0
0
0
0
0
0
0
0
0
0
0
0
0
0
0
0
0
0
0
0
0
0
0
0
0
0
0
0
0
0
0
0
0
0
0
0
0
0
0
0
0
0
0
0
0
0
0
0
0
0
0
0
0
0
0
0
0
0
0
0
0
0
0
0
0
0
0
0
0
0
0
0
0
0
0
0
0
0
0
0
0
0
0
0
0
0
0
0
0
0
0
0
0
0
0
0
0
0
0
0
0
0
0
0
0
0
0
0
0
0
0
0
0
0
0
0
0
0
0
0
0
0
0
0
0
0
0
0
0
0
0
0
0
0
0
0
0
0
0
0
0
0
0
0
0
0
0
0
0
0
0
0
0
0
0
0
0
0
0
0
0
0
0
0
0
0
0
0
0
0
0
0
0
0
0
0
0
0
0
0
0
0
0
0
0
0
0
0
0
0
0
0
0
0
0
0
0
0
0
0
0
0
0
0
0
0
0
0
0
0
0
0
0
0
0
0
0
0
0
0
0
0
0
0
0
0
0
0
0
0
0
0
0
0
0
0
0
0
0
0
0
0
0
0
0
0
0
0
0
0
0
0
0
0
0
0
0
0
0
0
0
0
0
0
0
0
0
0
0
0
0
0
0
0
0
0
0
0
0
0
0
0
0
0
0
0
0
0
0
0
0
0
0
0
0
0
0
0
0
0
0
0
0
0
0
0
0
0
0
0
0
0
0
0
0
0
0
0
0
0
0
0
0
0
0
0
0
0
0
0
0
0
0
0
0
0
0
0
0
0
0
0
0
0
0
0
0
0
0
0
0
0
0
0
0
0
0
0
0
0
0
0
0
0
0
0
0
0
0
0
0
0
0
0
0
0
0
0
0
0
0
0
0
0
0
0
0
0
0
0
0
0
0
0
0
0
0
0
0
0
0
0
0
0
0
0
0
0
0
0
0
0
0
0
0
0
0
0
0
0
0
0
0
0
0
0
0
0
0
0
0
0
0
0
0
0
0
0
0
0
0
0
0
0
0
0
0
0
0
0
0
0
0
0
0
0
0
0
0
0
0
0
0
0
0
0
0
0
0
0
0
0
0
0
0
0
0
0
0
0
0
0
0
0
0
0
0
SCALARS rhs double 1
LOOKUP_TABLE default
-5.35272
-5.30296
-5.29929
-5.29538
-5.29131
-5.28749
-5.28423
-5.28177
-5.28023
-5.27956
-5.2796
-5.28018
-5.28107
-5.28208
-5.28304
-5.28382
-5.28435
-5.28461
-5.28463
-5.28446
-5.28478
-5.28446
-5.28302
-5.28226
-5.28134
-5.2803
-5.27923
-5.27827
-5.27759
-5.27742
-5.27782
-5.27884
-5.28024
-5.28155
-5.2821
-5.28138
-5.27955
-5.27752
-5.2763
-5.27595
-0.299293
-0.252701
-0.25021
-0.247399
-0.244325
-0.241361
-0.238818
-0.236904
-0.235725
-0.235191
-0.235251
-0.235962
-0.236972
-0.238078
-0.239096
-0.23989
-0.240389
-0.240593
-0.240557
-0.240355
-0.240742
-0.2404
-0.239087
-0.23845
-0.237652
-0.236728
-0.235781
-0.234963
-0.234459
-0.234639
-0.235173
-0.236215
-0.237524
-0.238642
-0.238996
-0.238204
-0.236488
-0.234742
-0.233793
-0.233585
-0.297919
-0.253893
-0.251285
-0.248305
-0.245058
-0.241935
-0.239253
-0.23722
-0.235936
-0.235198
-0.235096
-0.235738
-0.23668
-0.237711
-0.23864
-0.239323
-0.239692
-0.239755
-0.239589
-0.239298
-0.2398
-0.239326
-0.238203
-0.237707
-0.237047
-0.236245
-0.2354
-0.234673
-0.234237
-0.23466
-0.235279
-0.236321
-0.237523
-0.238387
-0.238352
-0.237134
-0.235122
-0.23332
-0.232504
-0.232411
-0.297958
-0.257109
-0.254251
-0.250945
-0.247372
-0.243958
-0.24103
-0.238792
-0.237335
-0.236234
-0.235971
-0.236498
-0.237323
-0.238223
-0.238991
-0.239475
-0.239608
-0.239419
-0.239023
-0.238572
-0.23923
-0.238575
-0.237768
-0.237524
-0.237114
-0.236534
-0.235878
-0.235313
-0.235031
-0.235705
-0.236535
-0.237567
-0.238585
-0.239035
-0.238382
-0.236507
-0.234051
-0.232185
-0.231592
-0.231663
-0.299925
-0.262854
-0.259513
-0.255613
-0.251461
-0.247544
-0.244204
-0.241641
-0.239925
-0.238254
-0.237857
-0.238222
-0.238871
-0.239559
-0.240059
-0.240212
-0.239959
-0.239366
-0.238606
-0.237904
-0.238759
-0.237878
-0.237555
-0.237721
-0.237727
-0.237528
-0.237202
-0.236921
-0.236885
-0.2379
-0.239114
-0.240129
-0.24086
-0.240676
-0.239099
-0.236264
-0.233186
-0.231265
-0.231034
-0.231323
-0.305008
-0.272301
-0.268039
-0.263051
-0.257871
-0.253094
-0.249085
-0.246026
-0.243958
-0.241502
-0.241071
-0.241253
-0.241669
-0.242038
-0.242113
-0.241737
-0.240887
-0.239693
-0.238411
-0.237357
-0.238472
-0.237308
-0.237671
-0.23846
-0.23913
-0.239558
-0.239784
-0.239976
-0.240348
-0.241806
-0.243725
-0.244726
-0.245022
-0.24388
-0.240927
-0.236696
-0.232756
-0.230832
-0.231207
-0.2318
-0.314769
-0.286973
-0.280986
-0.273998
-0.266996
-0.260761
-0.255672
-0.251877
-0.249376
-0.246064
-0.245845
-0.245913
-0.246079
-0.246003
-0.245433
-0.244254
-0.242531
-0.240513
-0.238568
-0.237096
-0.238621
-0.237016
-0.238278
-0.239946
-0.241618
-0.243037
-0.244151
-0.245116
-0.246175
-0.248074
-0.251437
-0.252491
-0.252163
-0.249582
-0.244571
-0.238304
-0.233192
-0.231408
-0.232822
-0.233846
-0.33096
-0.308586
-0.299474
-0.288855
-0.278661
-0.270007
-0.263198
-0.258287
-0.255266
-0.251502
-0.251946
-0.252204
-0.252219
-0.251589
-0.250122
-0.247821
-0.24494
-0.24193
-0.239292
-0.237811
-0.239008
-0.237577
-0.239546
-0.242317
-0.245393
-0.248289
-0.250759
-0.252934
-0.255163
-0.257672
-0.263661
-0.26503
-0.26389
-0.259199
-0.251174
-0.242034
-0.235448
-0.234151
-0.237327
-0.238905
-0.355515
-0.339128
-0.324533
-0.307417
-0.29181
-0.279323
-0.269799
-0.263036
-0.258619
-0.256872
-0.258083
-0.259272
-0.259416
-0.258204
-0.25573
-0.252164
-0.248013
-0.244044
-0.240906
-0.239925
-0.240566
-0.239066
-0.241502
-0.245433
-0.250268
-0.255157
-0.259482
-0.263372
-0.267553
-0.27099
-0.281524
-0.283799
-0.281739
-0.274203
-0.262141
-0.24944
-0.241467
-0.241459
-0.247541
-0.249618
-0.391275
-0.381779
-0.357224
-0.328443
-0.304007
-0.285882
-0.272257
-0.262283
-0.256256
-0.257668
-0.261326
-0.264928
-0.265608
-0.263787
-0.260733
-0.256531
-0.251567
-0.247018
-0.243731
-0.244016
-0.243295
-0.241321
-0.243738
-0.248628
-0.255352
-0.262585
-0.268954
-0.27454
-0.281479
-0.28768
-0.301689
-0.306624
-0.303692
-0.293402
-0.277586
-0.262399
-0.254665
-0.257622
-0.268337
-0.270237
-0.440958
-0.439291
-0.393735
-0.343705
-0.306278
-0.281586
-0.26342
-0.249716
-0.24267
-0.24779
-0.256248
-0.265616
-0.268346
-0.264988
-0.262391
-0.259917
-0.255713
-0.251116
-0.247416
-0.248961
-0.244815
-0.242667
-0.245024
-0.250952
-0.259629
-0.269267
-0.276594
-0.280845
-0.289444
-0.302232
-0.309634
-0.317573
-0.314604
-0.305859
-0.293051
-0.282815
-0.281922
-0.289944
-0.307244
-0.306449
-0.491215
-0.489997
-0.396441
-0.313188
-0.265982
-0.239916
-0.223904
-0.215738
-0.214258
-0.221055
-0.23128
-0.255406
-0.275911
-0.264904
-0.259351
-0.261554
-0.261551
-0.257003
-0.250873
-0.248551
-0.239395
-0.239372
-0.24454
-0.254343
-0.266621
-0.278517
-0.280812
-0.270057
-0.272744
-0.28468
-0.279367
-0.278046
-0.281193
-0.287022
-0.297658
-0.311982
-0.340486
-0.34957
-0.373724
-0.363424
-0.455594
-0.39381
-0.21704
-0.134743
-0.118967