# vtk DataFile Version 4.0
Nusif Fluid VTK output
ASCII
DATASET STRUCTURED_POINTS
DIMENSIONS 40 30 1
ORIGIN 0 0 0 
SPACING 0.2 0.2 1
POINT_DATA 1200 

VECTORS velocity double
0.00612099 -0.00538796  0
0.0180332 -0.00510604  0
0.0290775 -0.0045685  0
0.0388381 -0.00382341  0
0.0469596 -0.00292983  0
0.0532062 -0.00194862  0
0.0574596 -0.000936365  0
0.0597076 5.75532e-05  0
0.0600285 0.000991566  0
0.0585767 0.00183144  0
0.0555677 0.00254996  0
0.051264 0.0031275  0
0.0459591 0.00355247  0
0.0399608 0.00382226  0
0.0335721 0.00394399  0
0.0270717 0.00393514  0
0.0206929 0.00382338  0
0.014605 0.0036449  0
0.00890118 0.00343995  0
0.00359704 0.0032456  0
-0.00135387 0.00308689  0
-0.00602947 0.00297026  0
-0.0104978 0.00287938  0
-0.0147788 0.00278256  0
-0.0188223 0.00264127  0
-0.0225033 0.00241936  0
-0.0256333 0.00208951  0
-0.0279816 0.0016367  0
-0.0293013 0.00106004  0
-0.0293605 0.000375195  0
-0.0279793 -0.000381303  0
-0.0250773 -0.00114652  0
-0.020732 -0.00182555  0
-0.0152435 -0.00229041  0
-0.00918698 -0.00239427  0
-0.00340744 -0.00201403  0
0.00110397 -0.0011266  0
0.00349375 0.000107259  0
0.00343375 0.00132296  0
0.00139793 0.00208299  0
0.00640152 -0.0164943  0
0.0188494 -0.0156203  0
0.0303559 -0.0139591  0
0.040472 -0.0116645  0
0.0488295 -0.00892288  0
0.055195 -0.00592274  0
0.0594616 -0.00283668  0
0.0616318 0.000186476  0
0.0617992 0.00302232  0
0.0601328 0.00556836  0
0.0568633 0.00774275  0
0.0522688 0.00948582  0
0.0466604 0.010762  0
0.0403649 0.0115627  0
0.0337055 0.0119092  0
0.02698 0.0118548  0
0.020438 0.0114847  0
0.0142583 0.0109121  0
0.00853235 0.0102642  0
0.00326038 0.00965941  0
-0.00163228 0.00917866  0
-0.00625881 0.00884247  0
-0.0107196 0.00859775  0
-0.0150554 0.0083418  0
-0.0192212 0.00795138  0
-0.0230844 0.00731241  0
-0.0264396 0.00633972  0
-0.0290349 0.00498677  0
-0.0306006 0.00325091  0
-0.0308829 0.00118014  0
-0.0296831 -0.00111414  0
-0.0269066 -0.0034402  0
-0.0226233 -0.00550959  0
-0.0171325 -0.00693567  0
-0.0110102 -0.00727876  0
-0.00509636 -0.00617439  0
-0.000367709 -0.00355835  0
0.00233887 9.02359e-05  0
0.00269306 0.00369317  0
0.0011422 0.00594679  0
0.00698815 -0.0285213  0
0.0205512 -0.0269666  0
0.0330105 -0.0240287  0
0.0438492 -0.0199997  0
0.0526767 -0.0152221  0
0.0592699 -0.010031  0
0.0635494 -0.00472265  0
0.0655504 0.000453995  0
0.0653979 0.00529347  0
0.0632898 0.00962599  0
0.0594857 0.0133141  0
0.0542953 0.0162554  0
0.0480655 0.0183874  0
0.0411621 0.0196935  0
0.0339494 0.0202085  0
0.0267652 0.0200236  0
0.019893 0.0192888  0
0.0135316 0.0182079  0
0.00776963 0.0170152  0
0.00257569 0.0159332  0
-0.00218464 0.0151166  0
-0.0066993 0.0146041  0
-0.011137 0.0142926  0
-0.0155809 0.0139842  0
-0.0199966 0.0134476  0
-0.0242342 0.0124735  0
-0.0280534 0.0109092  0
-0.0311585 0.00867306  0
-0.0332342 0.00576077  0
-0.0339819 0.00225457  0
-0.0331621 -0.00165445  0
-0.0306484 -0.00563685  0
-0.0264929 -0.00919887  0
-0.0209912 -0.0116863  0
-0.0147219 -0.0123675  0
-0.00852004 -0.0106492  0
-0.00334018 -0.00644005  0
9.39107e-06 -0.000532269  0
0.00119974 0.0053231  0
0.000627239 0.00899228  0
0.00793001 -0.042085  0
0.0232734 -0.0396828  0
0.0372297 -0.0351838  0
0.0491762 -0.0290851  0
0.0586983 -0.021941  0
0.0656041 -0.014265  0
0.0698693 -0.00648651  0
0.071585 0.00104892  0
0.0709237 0.00806102  0
0.0681247 0.0143151  0
0.0634885 0.0196158  0
0.0573719 0.0238119  0
0.0501769 0.0268078  0
0.0423311 0.028575  0
0.0342632 0.0291609  0
0.0263737 0.0286986  0
0.0189992 0.0274147  0
0.0123705 0.0256265  0
0.00657284 0.0237106  0
0.00152468 0.0220342  0
-0.0030044 0.0208592  0
-0.00732372 0.0202495  0
-0.0117113 0.020026  0
-0.0163166 0.019853  0
-0.0211191 0.0193495  0
-0.0259401 0.018182  0
-0.0304848 0.0161158  0
-0.034392 0.0130292  0
-0.0372766 0.0089149  0
-0.0387706 0.00389163  0
-0.0385696 -0.00176348  0
-0.0364931 -0.00756964  0
-0.0325586 -0.0128081  0
-0.0270501 -0.0165397  0
-0.0205482 -0.0177379  0
-0.0138833 -0.0155984  0
-0.00798281 -0.0100242  0
-0.00361973 -0.00211379  0
-0.00112322 0.00576478  0
-0.000173053 0.0107201  0
0.00929802 -0.0579681  0
0.0272066 -0.0544375  0
0.0432715 -0.0479118  0
0.056722 -0.039215  0
0.0671361 -0.0292076  0
0.0743982 -0.0186258  0
0.078584 -0.0080353  0
0.0798701 0.00213839  0
0.0784899 0.0115564  0
0.0747291 0.0199239  0
0.0689369 0.0269808  0
0.0615335 0.0325133  0
0.0529996 0.0363825  0
0.0438512 0.0385424  0
0.034608 0.0390532  0
0.0257566 0.0380962  0
0.017706 0.0359916  0
0.0107305 0.0332034  0
0.00491005 0.0303015  0
9.25764e-05 0.0278585  0
-0.0040895 0.0262953  0
-0.00811866 0.0257108  0
-0.0124263 0.0258085  0
-0.0172511 0.0260489  0
-0.0225883 0.025841  0
-0.0282185 0.0246887  0
-0.0337751 0.0222567  0
-0.0388104 0.0183764  0
-0.0428496 0.0130364  0
-0.045433 0.00639185  0
-0.0461632 -0.00119097  0
-0.0447739 -0.00906477  0
-0.0412198 -0.0162589  0
-0.0357535 -0.0215215  0
-0.0289489 -0.0235207  0
-0.0216269 -0.0212606  0
-0.0146816 -0.0146661  0
-0.00884571 -0.00512909  0
-0.00446068 0.00444024  0
-0.0013212 0.0104967  0
0.0111725 -0.0771041  0
0.0325597 -0.071997  0
0.0513961 -0.0627214  0
0.0667205 -0.0506475  0
0.0781567 -0.0370917  0
0.0857527 -0.0230651  0
0.089754 -0.00924756  0
0.0904533 0.00390197  0
0.0881442 0.0160199  0
0.0831474 0.026757  0
0.0758609 0.0357665  0
0.066787 0.042746  0
0.0565177 0.047495  0
0.0456926 0.0499461  0
0.0349519 0.0501769  0
0.0248907 0.0484291  0
0.0160039 0.0451405  0
0.00861325 0.0409652  0
0.00278653 0.0367315  0
-0.00172161 0.0332987  0
-0.0054562 0.0313162  0
-0.00912053 0.0309275  0
-0.0133365 0.031659  0
-0.0184498 0.0326796  0
-0.0244734 0.0331134  0
-0.0311407 0.0322555  0
-0.0380034 0.0296499  0
-0.04452 0.0250753  0
-0.0501157 0.0185118  0
-0.0542218 0.0101446  0
-0.0563193 0.000422007  0
-0.0560115 -0.00983725  0
-0.053134 -0.0193811  0
-0.0478604 -0.0266025  0
-0.0407303 -0.0298381  0
-0.0325422 -0.027917  0
-0.0241442 -0.0208171  0
-0.0162253 -0.0101968  0
-0.00916609 0.000599754  0
-0.00293792 0.00750571  0
0.0136229 -0.100577  0
0.0394962 -0.0931998  0
0.0617486 -0.0800818  0
0.079197 -0.0635335  0
0.091637 -0.0455544  0
0.0994385 -0.0274713  0
0.103121 -0.0099953  0
0.103111 0.00649131  0
0.0997196 0.021663  0
0.093254 0.0351096  0
0.0841463 0.0463427  0
0.0730115 0.0549141  0
0.0606076 0.0605368  0
0.0477483 0.0631263  0
0.0352271 0.0627968  0
0.0237607 0.0598755  0
0.0139274 0.0549534  0
0.00608241 0.0489274  0
0.000259597 0.0429583  0
-0.00390553 0.0382846  0
-0.0071625 0.0358611  0
-0.0104563 0.0358795  0
-0.0146105 0.0376155  0
-0.0200852 0.0398488  0
-0.02692 0.0413395  0
-0.0348126 0.0411257  0
-0.0432461 0.0386113  0
-0.0516002 0.0335193  0
-0.0592163 0.0258135  0
-0.0654172 0.0156829  0
-0.0695276 0.00362396  0
-0.0709422 -0.00940071  0
-0.0692733 -0.0218329  0
-0.0645225 -0.0316444  0
-0.0571416 -0.0367767  0
-0.04788 -0.0358977  0
-0.0375113 -0.029073  0
-0.0266688 -0.0181721  0
-0.0158196 -0.00680321  0
-0.00522087 0.000612091  0
0.0166837 -0.129573  0
0.048061 -0.118885  0
0.0742196 -0.100289  0
0.0937463 -0.0777815  0
0.106877 -0.0543564  0
0.114583 -0.0316546  0
0.117812 -0.0102003  0
0.1171 0.00994321  0
0.11263 0.0285991  0
0.104562 0.0452341  0
0.0933348 0.059082  0
0.0797446 0.0694299  0
0.0648213 0.0758794  0
0.0496313 0.0783652  0
0.0351517 0.0770916  0
0.0222135 0.0725189  0
0.0114457 0.0654451  0
0.00318666 0.0570741  0
-0.00261473 0.0489702  0
-0.00647304 0.0428304  0
-0.0093361 0.0399693  0
-0.0123503 0.0406129  0
-0.0165019 0.043721  0
-0.0223622 0.0476107  0
-0.0300319 0.0506136  0
-0.0392218 0.0514649  0
-0.0493997 0.0494133  0
-0.0599231 0.0441235  0
-0.0700957 0.0355258  0
-0.0791537 0.0237565  0
-0.0862334 0.00926671  0
-0.0903969 -0.00693973  0
-0.0908445 -0.0229901  0
-0.0872333 -0.0363246  0
-0.0798448 -0.0443414  0
-0.069347 -0.0455682  0
-0.0563789 -0.0402152  0
-0.0414722 -0.0302549  0
-0.025249 -0.0192686  0
-0.00844966 -0.0117963  0
0.0202485 -0.165209  0
0.0579309 -0.149757  0
0.0881269 -0.12326  0
0.109171 -0.092868  0
0.12221 -0.0629252  0
0.129272 -0.0353385  0
0.132002 -0.00995888  0
0.130918 0.0140162  0
0.125689 0.0367466  0
0.11603 0.0573343  0
0.102351 0.0744115  0
0.0858156 0.0867502  0
0.0679607 0.093863  0
0.0502321 0.0958272  0
0.0338047 0.0930642  0
0.0195688 0.0862487  0
0.00812095 0.0764597  0
-0.00031874 0.0652872  0
-0.00598444 0.0547533  0
-0.00958061 0.0470308  0
-0.0121893 0.0437694  0
-0.0150245 0.0451905  0
-0.0191354 0.0499335  0
-0.0252103 0.0558603  0
-0.0334987 0.0608482  0
-0.0438391 0.0632857  0
-0.0557782 0.0622335  0
-0.0687245 0.0572959  0
-0.082036 0.0483595  0
-0.0949434 0.0354092  0
-0.106368 0.018638  0
-0.114826 -0.00117014  0
-0.11882 -0.0217989  0
-0.117396 -0.0400336  0
-0.110542 -0.0523568  0
-0.0988223 -0.0572521  0
-0.0826055 -0.0551984  0
-0.0621897 -0.0480763  0
-0.0384441 -0.038898  0
-0.0129527 -0.0319396  0
0.0235313 -0.207707  0
0.0672432 -0.186119  0
0.101036 -0.148381  0
0.122506 -0.107754  0
0.134162 -0.0702264  0
0.139776 -0.038205  0
0.142352 -0.0098879  0
0.142096 0.0177975  0
0.137125 0.0456801  0
0.126032 0.071669  0
0.109242 0.0930632  0
0.0888421 0.107553  0
0.0674227 0.114855  0
0.0469998 0.115508  0
0.0289029 0.11043  0
0.0139246 0.10062  0
0.0024674 0.0875167  0
-0.00552833 0.0731894  0
-0.0106188 0.0601312  0
-0.0137334 0.0508874  0
-0.0159653 0.0472767  0
-0.0183854 0.0494614  0
-0.0219841 0.0558947  0
-0.0276278 0.0641392  0
-0.0358967 0.0716473  0
-0.0469195 0.0763693  0
-0.0603962 0.077084  0
-0.0758343 0.073347  0
-0.0927509 0.0650523  0
-0.110545 0.0519323  0
-0.128078 0.0335864  0
-0.143065 0.00983942  0
-0.15288 -0.0164863  0
-0.155396 -0.0417432  0
-0.150082 -0.0603042  0
-0.137553 -0.0710413  0
-0.117655 -0.0750119  0
-0.0901314 -0.0736907  0
-0.0561956 -0.0684532  0
-0.0189616 -0.062598  0
0.0235409 -0.253513  0
0.069569 -0.227537  0
0.106228 -0.174915  0
0.127386 -0.121347  0
0.136223 -0.0746265  0
0.139068 -0.0397619  0
0.142688 -0.0120227  0
0.146818 0.018564  0
0.144919 0.0542908  0
0.132695 0.0888861  0
0.111032 0.11681  0
0.0846222 0.133129  0
0.0584285 0.139407  0
0.0351303 0.137194  0
0.0160078 0.128481  0
0.00138998 0.114683  0
-0.00879122 0.0976105  0
-0.0150729 0.0798919  0
-0.0184277 0.0643929  0
-0.0199852 0.0538165  0
-0.0207234 0.0498361  0
-0.0214222 0.0525388  0
-0.0230136 0.0605247  0
-0.0267346 0.07139  0
-0.0337604 0.0822064  0
-0.0446474 0.0902339  0
-0.0591549 0.0937164  0
-0.0766652 0.0921743  0
-0.0968851 0.0858713  0
-0.119911 0.0744415  0
-0.145583 0.0567896  0
-0.170509 0.0290554  0
-0.190068 -0.00382216  0
-0.199249 -0.0402045  0
-0.196526 -0.0673754  0
-0.183912 -0.0866076  0
-0.160424 -0.100326  0
-0.124609 -0.109209  0
-0.077983 -0.110991  0
-0.0262322 -0.106539  0
0.0133919 -0.289817  0
0.0515244 -0.273517  0
0.0918696 -0.203444  0
0.114688 -0.134299  0
0.121152 -0.0744809  0
0.118168 -0.0372736  0
0.123088 -0.0205547  0
0.139755 0.00879815  0
0.148097 0.0601157  0
0.135066 0.110822  0
0.103659 0.150451  0
0.0663332 0.165733  0
0.0335617 0.168278  0
0.00744628 0.160248  0
-0.011386 0.145894  0
-0.0238131 0.126828  0
-0.0307202 0.105068  0
-0.0332271 0.0837373  0
-0.0325366 0.0657258  0
-0.0297804 0.0537988  0
-0.0258487 0.0491737  0
-0.0214426 0.0520068  0
-0.0178032 0.0615211  0
-0.0169401 0.0757629  0
-0.0209225 0.0913519  0
-0.0307055 0.104267  0
-0.0455206 0.111513  0
-0.0636591 0.112532  0
-0.084767 0.109345  0
-0.110783 0.102512  0
-0.146775 0.0928843  0
-0.187456 0.061067  0
-0.223847 0.0226152  0
-0.242885 -0.0359239  0
-0.241167 -0.0735975  0
-0.228123 -0.103545  0
-0.2015 -0.131  0
-0.15801 -0.15534  0
-0.0991284 -0.167868  0
-0.0332601 -0.164781  0
0.0178803 -0.300421  0
0.0357606 -0.297633  0
0.0508403 -0.233505  0
0.0768764 -0.151847  0
0.0914199 -0.0766945  0
0.0870961 -0.0265068  0
0.084656 -0.0325558  0
0.119049 -0.0283883  0
0.151036 0.059472  0
0.135853 0.142178  0
0.0814271 0.207427  0
0.0232696 0.206744  0
-0.0155769 0.201391  0
-0.0424264 0.182607  0
-0.0582628 0.160712  0
-0.0662894 0.134973  0
-0.0676574 0.107707  0
-0.0638823 0.0823388  0
-0.0556992 0.06076  0
-0.043821 0.0466393  0
-0.0294588 0.040548  0
-0.0139593 0.0432351  0
0.000201596 0.0549999  0
0.00951422 0.0746149  0
0.0106907 0.0978112  0
0.00263208 0.118153  0
-0.0122938 0.12987  0
-0.0290048 0.131525  0
-0.0457782 0.130732  0
-0.0656921 0.129551  0
-0.113534 0.152173  0
-0.179676 0.111093  0
-0.241611 0.0734067  0
-0.271899 -0.0348983  0
-0.26409 -0.0816562  0
-0.247451 -0.122676  0
-0.217482 -0.165967  0
-0.170513 -0.208339  0
-0.107984 -0.233787  0
-0.0367131 -0.233507  0
0.0178803 -0.148816  0
0.0112364 -0.148816  0
-0.0165745 -0.124292  0
-0.00727493 -0.0814016  0
0.0193162 -0.0401409  0
0.0659685 -0.00929789  0
0.132303 -0.0473563  0
0.16599 -0.0566859  0
0.166059 0.0569626  0
0.13593 0.191247  0
0.0305672 0.320023  0
-0.0562763 0.24165  0
-0.0834096 0.234966  0
-0.104815 0.19979  0
-0.116119 0.173173  0
-0.121292 0.138215  0
-0.116432 0.103479  0
-0.104529 0.0733944  0
-0.0855561 0.045053  0
-0.059432 0.0268487  0
-0.028514 0.0175627  0
0.00472562 0.019985  0
0.0353301 0.0359877  0
0.0572342 0.0649126  0
0.0656661 0.100406  0
0.0597374 0.132045  0
0.0427752 0.150364  0
0.0254267 0.147585  0
0.010988 0.148376  0
0.0156885 0.129611  0
-0.0347898 0.252922  0
-0.14 0.183562  0
-0.207488 0.131606  0
-0.23973 -0.0293234  0
-0.240431 -0.0930948  0
-0.219891 -0.14717  0
-0.18594 -0.204148  0
-0.14308 -0.258741  0
-0.0933062 -0.294443  0
-0.0332927 -0.30289  0
0 0  0
0 0  0
0 0  0
0 0  0
0 0  0
0 0  0
0.082995 -0.028343  0
0.1092 -0.028343  0
0.0269938 0.0284468  0
-0.00670169 0.308629  0
-0.0149805 0.395813  0
-0.0269857 0.265957  0
-0.073501 0.286182  0
-0.116147 0.215125  0
-0.142615 0.198109  0
-0.162792 0.141128  0
-0.15561 0.0910257  0
-0.136051 0.056887  0
-0.10665 0.0156864  0
-0.0661239 -0.00793413  0
-0.0194871 -0.0227092  0
0.0306861 -0.0206563  0
0.0778609 0.00134878  0
0.113402 0.0446048  0
0.13028 0.0979008  0
0.129878 0.143377  0
0.108529 0.179836  0
0.0830892 0.163392  0
0.0196768 0.212287  0
-0.0417819 0.123702  0
-0.0476406 0.316411  0
-0.0804152 0.271158  0
-0.0834221 0.0783763  0
-0.111609 -0.011114  0
-0.170887 -0.049745  0
-0.157659 -0.0806573  0
-0.125701 -0.111977  0
-0.0944754 -0.140897  0
-0.0661116 -0.160582  0
-0.0257831 -0.168092  0
0 0  0
0 0  0
0 0  0
0 0  0
0 0  0
0 0  0
0 0  0
0 0  0
0 0  0
-0.00749025 0.197907  0
0.0439449 0.197907  0
0.0402216 0.29964  0
-0.022427 0.321317  0
-0.0349735 0.236431  0
-0.0932661 0.262812  0
-0.146414 0.151624  0
-0.139943 0.0693755  0
-0.116024 0.0375571  0
-0.0851346 -0.0227776  0
-0.0434001 -0.0492342  0
0.000366524 -0.0693166  0
0.0465462 -0.0679062  0
0.0929816 -0.0425162  0
0.132549 0.0158565  0
0.155151 0.0896633  0
0.172078 0.137582  0
0.14059 0.240336  0
0.0983392 0.171826  0
0.100371 0.219856  0
-0.0660441 0.0647805  0
-0.141066 0.158206  0
-0.0238203 0.158206  0
0 0  0
0 0  0
0 0  0
0 0  0
0 0  0
0 0  0
0 0  0
0 0  0
0 0  0
0 0  0
0 0  0
0 0  0
0 0  0
0 0  0
0 0  0
0 0  0
0 0  0
0 0  0
0 0  0
-0.0112135 0.160658  0
0.0137424 0.160658  0
-0.0285941 0.124489  0
-0.060443 0.234104  0
-0.0137859 0.15965  0
-0.0140317 0.0563726  0
-0.00771383 0.0215713  0
0.00379534 -0.0479427  0
0.0151528 -0.075914  0
0.0265114 -0.0965152  0
0.0355648 -0.0946939  0
0.0437392 -0.0690915  0
0.0540858 -0.00623545  0
0.0668571 0.0776287  0
0.0733495 0.127442  0
0.141225 0.205014  0
0.15372 0.0859128  0
0.0491696 0.0859128  0
0 0  0
0 0  0
0 0  0
0 0  0
0 0  0
0 0  0
0 0  0
0 0  0
0 0  0
0 0  0
0 0  0
0 0  0
0 0  0
0 0  0
0 0  0
0 0  0
0 0  0
0 0  0
0 0  0
0 0  0
0 0  0
0 0  0
0 0  0
0 0  0
0 0  0
-0.00689294 0.0798252  0
0.0377301 0.0798252  0
0.0582896 0.0283092  0
0.0470395 0.0075038  0
0.0524621 -0.0264441  0
0.0394396 -0.041163  0
0.0347488 -0.0507309  0
0.0214135 -0.0494003  0
0.000596079 -0.0365796  0
-0.0180619 -0.00625721  0
-0.00312118 0.0355681  0
0.0451965 0.0637211  0
0.0366747 0.0637211  0
0 0  0
0 0  0
0 0  0
0 0  0
0 0  0
0 0  0
0 0  0
0 0  0
0 0  0
0 0  0
0 0  0
0 0  0
0 0  0
0 0  0
0 0  0
0 0  0
0 0  0
0 0  0
0 0  0
0 0  0
0 0  0
0 0  0
0 0  0
0 0  0
0 0  0
0 0  0
0 0  0
0 0  0
0 0  0
0 0  0
0 0  0
0 0  0
0 0  0
0 0  0
0 0  0
0 0  0
0 0  0
0 0  0
0 0  0
0 0  0
0 0  0
0 0  0
0 0  0
0 0  0
0 0  0
0 0  0
0 0  0
0 0  0
0 0  0
0 0  0
0 0  0
0 0  0
0 0  0
0 0  0
0 0  0
0 0  0
0 0  0
0 0  0
0 0  0
0 0  0
0 0  0
0 0  0
0 0  0
0 0  0
0 0  0
0 0  0
0 0  0
0 0  0
0 0  0
0 0  0
0 0  0
0 0  0
0 0  0
0 0  0
0 0  0
0 0  0
0 0  0
0 0  0
0 0  0
0 0  0
0 0  0
0 0  0
0 0  0
0 0  0
0 0  0
0 0  0
0 0  0
0 0  0
0 0  0
0 0  0
0 0  0
0 0  0
0 0  0
0 0  0
0 0  0
0 0  0
0 0  0
0 0  0
0 0  0
0 0  0
0 0  0
0 0  0
0 0  0
0 0  0
0 0  0
0 0  0
0 0  0
0 0  0
0 0  0
0 0  0
0 0  0
0 0  0
0 0  0
0 0  0
0 0  0
0 0  0
0 0  0
0 0  0
0 0  0
0 0  0
0 0  0
0 0  0
0 0  0
0 0  0
0 0  0
0 0  0
0 0  0
0 0  0
0 0  0
0 0  0
0 0  0
0 0  0
0 0  0
0 0  0
0 0  0
0 0  0
0 0  0
0 0  0
0 0  0
0 0  0
0 0  0
0 0  0
0 0  0
0 0  0
0 0  0
0 0  0
0 0  0
0 0  0
0 0  0
0 0  0
0 0  0
0 0  0
0 0  0
0 0  0
0 0  0
0 0  0
0 0  0
0 0  0
0 0  0
0 0  0
0 0  0
0 0  0
0 0  0
0 0  0
0 0  0
0 0  0
0 0  0
0 0  0
0 0  0
0 0  0
0 0  0
0 0  0
0 0  0
0 0  0
0 0  0
0 0  0
0 0  0
0 0  0
0 0  0
0 0  0
0 0  0
0 0  0
0 0  0
0 0  0
0 0  0
0 0  0
0 0  0
0 0  0
0 0  0
0 0  0
0 0  0
0 0  0
0 0  0
0 0  0
0 0  0
0 0  0
0 0  0
0 0  0
0 0  0
0 0  0
0 0  0
0 0  0
0 0  0
0 0  0
0 0  0
0 0  0
0 0  0
0 0  0
0 0  0
0 0  0
0 0  0
0 0  0
0 0  0
0 0  0
0 0  0
0 0  0
0 0  0
0 0  0
0 0  0
0 0  0
0 0  0
0 0  0
0 0  0
0 0  0
0 0  0
0 0  0
0 0  0
0 0  0
0 0  0
0 0  0
0 0  0
0 0  0
0 0  0
0 0  0
0 0  0
0 0  0
0 0  0
0 0  0
0 0  0
0 0  0
0 0  0
0 0  0
0 0  0
0 0  0
0 0  0
0 0  0
0 0  0
0 0  0
0 0  0
0 0  0
0 0  0
0 0  0
0 0  0
0 0  0
0 0  0
0 0  0
0 0  0
0 0  0
0 0  0
0 0  0
0 0  0
0 0  0
0 0  0
0 0  0
0 0  0
0 0  0
0 0  0
0 0  0
0 0  0
0 0  0
0 0  0
0 0  0
0 0  0
0 0  0
0 0  0
0 0  0
0 0  0
0 0  0
0 0  0
0 0  0
0 0  0
0 0  0
0 0  0
0 0  0
0 0  0
0 0  0
0 0  0
0 0  0
0 0  0
0 0  0
0 0  0
0 0  0
0 0  0
0 0  0
0 0  0
0 0  0
0 0  0
0 0  0
0 0  0
0 0  0
0 0  0
0 0  0
0 0  0
0 0  0
0 0  0
0 0  0
0 0  0
0 0  0
0 0  0
0 0  0
0 0  0
0 0  0
0 0  0
0 0  0
0 0  0
0 0  0
0 0  0
0 0  0
0 0  0
0 0  0
0 0  0
0 0  0
0 0  0
0 0  0
0 0  0
0 0  0
0 0  0
0 0  0
0 0  0
0 0  0
0 0  0
0 0  0
0 0  0
0 0  0
0 0  0
0 0  0
0 0  0
0 0  0
0 0  0
0 0  0
0 0  0
0 0  0
0 0  0
0 0  0
0 0  0
0 0  0
0 0  0
0 0  0
0 0  0
0 0  0
0 0  0
0 0  0
0 0  0
0 0  0
0 0  0
0 0  0
0 0  0
0 0  0
0 0  0
0 0  0
0 0  0
0 0  0
0 0  0
0 0  0
0 0  0
0 0  0
0 0  0
0 0  0
0 0  0
0 0  0
0 0  0
0 0  0
0 0  0
0 0  0
0 0  0
0 0  0
0 0  0
0 0  0
0 0  0
0 0  0
0 0  0
0 0  0
0 0  0
0 0  0
0 0  0
0 0  0
0 0  0
0 0  0
0 0  0
0 0  0
0 0  0
0 0  0
0 0  0
0 0  0
0 0  0
0 0  0
0 0  0
0 0  0
0 0  0
0 0  0
0 0  0
0 0  0
0 0  0
0 0  0
0 0  0
0 0  0
0 0  0
0 0  0
0 0  0
0 0  0
0 0  0
0 0  0
0 0  0
0 0  0
0 0  0
0 0  0
0 0  0
0 0  0
0 0  0
0 0  0
0 0  0
0 0  0
0 0  0
0 0  0
0 0  0
0 0  0
0 0  0
0 0  0
0 0  0
0 0  0
0 0  0
0 0  0
0 0  0
0 0  0
0 0  0
0 0  0
0 0  0
0 0  0
0 0  0
0 0  0
0 0  0
0 0  0
0 0  0
0 0  0
0 0  0
0 0  0
0 0  0
0 0  0
0 0  0
0 0  0
0 0  0
0 0  0
0 0  0
0 0  0
0 0  0
0 0  0
0 0  0
0 0  0
0 0  0
0 0  0
0 0  0
0 0  0
0 0  0
0 0  0
0 0  0
0 0  0
0 0  0
0 0  0
0 0  0
0 0  0
0 0  0
0 0  0
0 0  0
0 0  0
0 0  0
0 0  0
0 0  0
0 0  0
0 0  0
0 0  0
0 0  0
0 0  0
0 0  0
0 0  0
0 0  0
0 0  0
0 0  0
0 0  0
0 0  0
0 0  0
0 0  0
0 0  0
0 0  0

SCALARS pressure double 1
LOOKUP_TABLE default
3.05243
3.05649
3.0642
3.07537
3.08978
3.10712
3.127
3.149
3.1726
3.19728
3.22246
3.24758
3.2721
3.2955
3.31734
3.33723
3.35486
3.36999
3.38246
3.39217
3.39907
3.4032
3.40464
3.40355
3.40012
3.39459
3.38728
3.37852
3.36867
3.35812
3.34724
3.33639
3.32589
3.31604
3.3071
3.29929
3.29284
3.28789
3.28455
3.28288
2.84357
2.84772
2.8556
2.86704
2.88178
2.89951
2.91984
2.94232
2.96644
2.99164
3.01734
3.04295
3.06792
3.09173
3.11392
3.13409
3.15194
3.16722
3.17977
3.1895
3.19636
3.20039
3.20168
3.20038
3.19668
3.19086
3.18321
3.17408
3.16385
3.15292
3.14167
3.13046
3.11965
3.10952
3.10034
3.09235
3.08576
3.08072
3.07733
3.07564
2.62543
2.62978
2.63806
2.65006
2.6655
2.68405
2.70531
2.7288
2.75398
2.78026
2.80704
2.83368
2.8596
2.88426
2.90717
2.92794
2.94624
2.96185
2.97459
2.98437
2.99117
2.99501
2.996
2.99429
2.99008
2.98364
2.97531
2.96544
2.95445
2.94274
2.93075
2.91884
2.90739
2.8967
2.88705
2.8787
2.87184
2.86663
2.86315
2.86141
2.39772
2.4024
2.41132
2.42421
2.44075
2.46058
2.48327
2.50832
2.53515
2.56313
2.59158
2.61982
2.64721
2.67317
2.6972
2.71888
2.73789
2.75399
2.76702
2.7769
2.7836
2.78717
2.7877
2.78536
2.78037
2.77301
2.76363
2.75262
2.74045
2.72756
2.71441
2.70143
2.689
2.67747
2.66714
2.65825
2.65101
2.64556
2.64195
2.64016
2.15994
2.16514
2.17501
2.18918
2.20725
2.22884
2.25351
2.28073
2.30987
2.34022
2.371
2.40145
2.43088
2.45864
2.48419
2.50712
2.52708
2.54384
2.55727
2.56727
2.57384
2.57704
2.57696
2.57377
2.5677
2.55906
2.54823
2.53565
2.52183
2.50729
2.49254
2.47808
2.46434
2.45168
2.44043
2.43086
2.42316
2.41744
2.4137
2.41185
1.91137
1.91738
1.92864
1.94456
1.96465
1.98852
2.01575
2.04581
2.078
2.11147
2.14533
2.1787
2.21078
2.24087
2.26839
2.2929
2.31407
2.33168
2.3456
2.35575
2.36216
2.36488
2.36401
2.35973
2.35227
2.34196
2.32922
2.31457
2.29857
2.28183
2.26498
2.24858
2.23314
2.21906
2.2067
2.19633
2.18814
2.18216
2.17831
2.17644
1.65085
1.65821
1.67157
1.68989
1.71252
1.73917
1.76958
1.80324
1.83935
1.87685
1.91466
1.95174
1.98717
2.02017
2.05012
2.07658
2.09922
2.11784
2.13234
2.14268
2.14888
2.15101
2.14917
2.14353
2.13433
2.1219
2.10674
2.08941
2.07059
2.05103
2.03145
2.01259
1.99502
1.97923
1.96559
1.95438
1.94572
1.93957
1.93571
1.93386
1.37653
1.38638
1.40312
1.4247
1.45038
1.48022
1.5144
1.55258
1.59367
1.63629
1.67909
1.72081
1.76037
1.79691
1.82979
1.85855
1.88292
1.90273
1.91789
1.92843
1.93439
1.93582
1.93283
1.92556
1.91422
1.89917
1.88095
1.86023
1.83782
1.81463
1.79157
1.76956
1.7494
1.73161
1.7166
1.70458
1.6956
1.68946
1.68574
1.68397
1.08513
1.10033
1.12289
1.14889
1.17788
1.21095
1.24935
1.29325
1.3407
1.38975
1.4388
1.48625
1.53083
1.5716
1.60791
1.63935
1.6657
1.68682
1.70272
1.71347
1.71914
1.71979
1.71548
1.7063
1.69241
1.67416
1.65212
1.62711
1.60015
1.57232
1.54475
1.51866
1.49534
1.47532
1.45895
1.44633
1.43733
1.4315
1.42814
1.42653
0.770312
0.79866
0.831751
0.863347
0.895057
0.930414
0.972956
1.02452
1.08023
1.13728
1.19415
1.2486
1.29918
1.34488
1.38511
1.41958
1.44812
1.47066
1.48734
1.49829
1.50365
1.50347
1.49773
1.4864
1.46954
1.4474
1.42062
1.39021
1.35745
1.32369
1.2902
1.25862
1.23141
1.209
1.19148
1.17869
1.17017
1.16509
1.16234
1.16096
0.417966
0.483239
0.534516
0.571203
0.602774
0.63721
0.682074
0.745934
0.812529
0.878915
0.945727
1.00862
1.06626
1.11755
1.16212
1.19992
1.23079
1.25483
1.27227
1.28341
1.28846
1.28746
1.28029
1.2667
1.24648
1.21971
1.18704
1.14979
1.10967
1.06845
1.027
0.987378
0.955295
0.930645
0.912547
0.900286
0.892876
0.889034
0.887164
0.886013
-0.00895738
0.173404
0.245623
0.279125
0.303033
0.329134
0.367539
0.459359
0.539275
0.613926
0.694698
0.767401
0.833202
0.890554
0.93959
0.980912
1.01434
1.0399
1.05802
1.06928
1.07406
1.0724
1.06398
1.04821
1.02439
0.992219
0.952246
0.906275
0.856802
0.806875
0.754704
0.700869
0.663562
0.637621
0.620246
0.609505
0.603757
0.601424
0.600519
0.599571
0
-0.0328432
-0.00740543
-0.00543787
-0.00173533
0.00447812
-0.00513772
0.179109
0.265575
0.336182
0.443915
0.525787
0.601323
0.664474
0.717686
0.763075
0.799319
0.826292
0.844906
0.856188
0.860798
0.858743
0.849477
0.831963
0.804715
0.766519
0.717466
0.660307
0.598254
0.54064
0.475493
0.389161
0.350606
0.327397
0.313868
0.305979
0.301959
0.300699
0.300279
0.299197
0
0
0
0
0
0
0
-0.0123242
-0.000110152
0.0129998
0.204021
0.27964
0.372441
0.440119
0.495661
0.546642
0.586223
0.614203
0.632834
0.643925
0.648481
0.6464
0.637093
0.618728
0.588896
0.544545
0.484397
0.413462
0.329437
0.271208
0.202856
0.0189617
0.0128953
0.00354791
-0.00319423
-0.00703147
-0.00990763
-0.0115842
-0.0134573
-0.0168123
0
0
0
0
0
0
0
0
0
0
0.0564244
0.00317923
0.159252
0.219861
0.26971
0.333063
0.376608
0.40376
0.420944
0.430969
0.435084
0.433697
0.425563
0.408108
0.37846
0.329688
0.254753
0.174199
0.0269442
0.00202389
0.0247471
0
0
0
0
0
0
0
0
0
0
0
0
0
0
0
0
0
0
0
0
0
0.0339091
0.00553644
0.02229
0.132429
0.176432
0.19637
0.208044
0.215064
0.218113
0.21754
0.2117
0.199376
0.177217
0.131256
0.0208153
-0.00611446
0
0
0
0
0
0
0
0
0
0
0
0
0
0
0
0
0
0
0
0
0
0
0
0
0
0
0
0.00414125
0.00021599
-0.00324587
-0.00243863
-0.00321082
-0.00247479
-0.0020512
-0.00201373
-0.00309263
-0.00312773
-0.0057549
0
0
0
0
0
0
0
0
0
0
0
0
0
0
0
0
0
0
0
0
0
0
0
0
0
0
0
0
0
0
0
0
0
0
0
0
0
0
0
0
0
0
0
0
0
0
0
0
0
0
0
0
0
0
0
0
0
0
0
0
0
0
0
0
0
0
0
0
0
0
0
0
0
0
0
0
0
0
0
0
0
0
0
0
0
0
0
0
0
0
0
0
0
0
0
0
0
0
0
0
0
0
0
0
0
0
0
0
0
0
0
0
0
0
0
0
0
0
0
0
0
0
0
0
0
0
0
0
0
0
0
0
0
0
0
0
0
0
0
0
0
0
0
0
0
0
0
0
0
0
0
0
0
0
0
0
0
0
0
0
0
0
0
0
0
0
0
0
0
0
0
0
0
0
0
0
0
0
0
0
0
0
0
0
0
0
0
0
0
0
0
0
0
0
0
0
0
0
0
0
0
0
0
0
0
0
0
0
0
0
0
0
0
0
0
0
0
0
0
0
0
0
0
0
0
0
0
0
0
0
0
0
0
0
0
0
0
0
0
0
0
0
0
0
0
0
0
0
0
0
0
0
0
0
0
0
0
0
0
0
0
0
0
0
0
0
0
0
0
0
0
0
0
0
0
0
0
0
0
0
0
0
0
0
0
0
0
0
0
0
0
0
0
0
0
0
0
0
0
0
0
0
0
0
0
0
0
0
0
0
0
0
0
0
0
0
0
0
0
0
0
0
0
0
0
0
0
0
0
0
0
0
0
0
0
0
0
0
0
0
0
0
0
0
0
0
0
0
0
0
0
0
0
0
0
0
0
0
0
0
0
0
0
0
0
0
0
0
0
0
0
0
0
0
0
0
0
0
0
0
0
0
0
0
0
0
0
0
0
0
0
0
0
0
0
0
0
0
0
0
0
0
0
0
0
0
0
0
0
0
0
0
0
0
0
0
0
0
0
0
0
0
0
0
0
0
0
0
0
0
0
0
0
0
0
0
0
0
0
0
0
0
0
0
0
0
0
0
0
0
0
0
0
0
0
0
0
0
0
0
0
0
0
0
0
0
0
0
0
0
0
0
0
0
0
0
0
0
0
0
0
0
0
0
0
0
0
0
0
0
0
0
0
0
0
0
0
0
0
0
0
0
0
0
0
0
0
0
0
0
0
0
0
0
0
0
0
0
0
0
0
0
0
0
0
0
0
0
0
0
0
0
0
0
SCALARS rhs double 1
LOOKUP_TABLE default
-5.01233
-5.06861
-5.06916
-5.0688
-5.0682
-5.06764
-5.06731
-5.06728
-5.06754
-5.06801
-5.06859
-5.0692
-5.06977
-5.07023
-5.07056
-5.07076
-5.07088
-5.07097
-5.07108
-5.07135
-5.0718
-5.07195
-5.07243
-5.07295
-5.07347
-5.07397
-5.07444
-5.07491
-5.07542
-5.07605
-5.07686
-5.07784
-5.0789
-5.07978
-5.08017
-5.07991
-5.07939
-5.07925
-5.07937
-5.0797
-0.0703883
-0.12299
-0.122334
-0.120992
-0.119594
-0.118375
-0.117488
-0.116941
-0.116747
-0.116956
-0.117367
-0.117859
-0.118321
-0.118668
-0.118854
-0.118874
-0.118762
-0.118577
-0.118386
-0.118329
-0.118392
-0.118196
-0.118289
-0.118392
-0.118463
-0.118479
-0.118445
-0.118397
-0.118402
-0.118551
-0.118961
-0.119464
-0.120016
-0.120378
-0.120292
-0.119698
-0.11894
-0.118578
-0.118719
-0.119075
-0.0768324
-0.126509
-0.125639
-0.124089
-0.122499
-0.121116
-0.120091
-0.119359
-0.119006
-0.119124
-0.11945
-0.119861
-0.120243
-0.120507
-0.120602
-0.120522
-0.120302
-0.12001
-0.119723
-0.119628
-0.119587
-0.119452
-0.119596
-0.119765
-0.119907
-0.119991
-0.120021
-0.120035
-0.1201
-0.120288
-0.120838
-0.121336
-0.121801
-0.121968
-0.121595
-0.120704
-0.119734
-0.119435
-0.119651
-0.120047
-0.0848712
-0.131102
-0.129872
-0.127959
-0.126042
-0.124387
-0.123141
-0.122104
-0.121565
-0.12155
-0.121753
-0.122043
-0.122302
-0.122434
-0.122384
-0.122144
-0.121753
-0.121289
-0.120852
-0.120709
-0.120484
-0.120464
-0.120696
-0.120984
-0.121257
-0.121471
-0.121625
-0.121761
-0.121944
-0.122226
-0.122946
-0.123503
-0.123836
-0.123691
-0.122861
-0.121502
-0.120249
-0.119782
-0.120464
-0.12099
-0.0954226
-0.137728
-0.13584
-0.133264
-0.13077
-0.128664
-0.127079
-0.125579
-0.124851
-0.124664
-0.124704
-0.124829
-0.124909
-0.124843
-0.124571
-0.124086
-0.123437
-0.122722
-0.122068
-0.121834
-0.121385
-0.121502
-0.121861
-0.122329
-0.122806
-0.123232
-0.123597
-0.12394
-0.124328
-0.12482
-0.125697
-0.126468
-0.126615
-0.125995
-0.124463
-0.12241
-0.120784
-0.120487
-0.121279
-0.122273
-0.109452
-0.147341
-0.14419
-0.140362
-0.13684
-0.133994
-0.131919
-0.129821
-0.12896
-0.128592
-0.12845
-0.128368
-0.128201
-0.127844
-0.12724
-0.126393
-0.125374
-0.124315
-0.123465
-0.122851
-0.122361
-0.122554
-0.123069
-0.123783
-0.124565
-0.125321
-0.126024
-0.12671
-0.12745
-0.12829
-0.129359
-0.130693
-0.130611
-0.129292
-0.126709
-0.123652
-0.121574
-0.12163
-0.123351
-0.124536
-0.128375
-0.161201
-0.15554
-0.149329
-0.143981
-0.139963
-0.13726
-0.134625
-0.133813
-0.133357
-0.133088
-0.132787
-0.132301
-0.131535
-0.130452
-0.129089
-0.127564
-0.126062
-0.125123
-0.123755
-0.123394
-0.123602
-0.124277
-0.125299
-0.126504
-0.127748
-0.12897
-0.130208
-0.131549
-0.133032
-0.134237
-0.136961
-0.136689
-0.134398
-0.130301
-0.125875
-0.123365
-0.124268
-0.127661
-0.130053
-0.153938
-0.180579
-0.169912
-0.159257
-0.150822
-0.145115
-0.14183
-0.139301
-0.138935
-0.138725
-0.138546
-0.13809
-0.137235
-0.13594
-0.134225
-0.132185
-0.130014
-0.128248
-0.126498
-0.124938
-0.124467
-0.124606
-0.125399
-0.126771
-0.128519
-0.130425
-0.132388
-0.134465
-0.1368
-0.139456
-0.141342
-0.145994
-0.146248
-0.142756
-0.136666
-0.130647
-0.128105
-0.130885
-0.13703
-0.139714
-0.186573
-0.205049
-0.184811
-0.166578
-0.15361
-0.145963
-0.142809
-0.142329
-0.143258
-0.144106
-0.144552
-0.144115
-0.142914
-0.141046
-0.138639
-0.135842
-0.132929
-0.131228
-0.12774
-0.126328
-0.12556
-0.125507
-0.126358
-0.128102
-0.130474
-0.133164
-0.136037
-0.139225
-0.143035
-0.14766
-0.152758
-0.15601
-0.161075
-0.156391
-0.148097
-0.14098
-0.139917
-0.14678
-0.157518
-0.160025
-0.217645
-0.225424
-0.18952
-0.16164
-0.144583
-0.135917
-0.135126
-0.140881
-0.145091
-0.148815
-0.151112
-0.150895
-0.14953
-0.147236
-0.144321
-0.140911
-0.138887
-0.133553
-0.130036
-0.127932
-0.126606
-0.126323
-0.127345
-0.129572
-0.132582
-0.135974
-0.139634
-0.143852
-0.149278
-0.156558
-0.166023
-0.168892
-0.183165
-0.177015
-0.166677
-0.160767
-0.165338
-0.180933
-0.19893
-0.198096
-0.229274
-0.211654
-0.15732
-0.127314
-0.115717
-0.11179
-0.116726
-0.130696
-0.1429
-0.153395
-0.161083
-0.160233
-0.159187
-0.156765
-0.154399
-0.153498
-0.144959
-0.138766
-0.133832
-0.129887
-0.127625
-0.127532
-0.129526
-0.132833
-0.136517
-0.140069
-0.143511
-0.14747
-0.153445
-0.163437
-0.181707
-0.192978
-0.204485
-0.202838
-0.188285
-0.188024
-0.206407
-0.239416
-0.268482
-0.258326
-1.37882
-0.16481
-0.0734248
-0.0544995
-0.0735884
-0.109607
-0.12042