# vtk DataFile Version 4.0
Nusif Fluid VTK output
ASCII
DATASET STRUCTURED_POINTS
DIMENSIONS 40 30 1
ORIGIN 0 0 0 
SPACING 0.2 0.2 1
POINT_DATA 1200 

VECTORS velocity double
0.000359911 0.000614102  0
0.000994638 0.000606969  0
0.00155193 0.00059615  0
0.0021284 0.000581593  0
0.00273189 0.000563131  0
0.00337062 0.000540536  0
0.00405326 0.000513524  0
0.00478909 0.000481752  0
0.00558809 0.000444806  0
0.00646112 0.000402203  0
0.00742007 0.000353379  0
0.00847798 0.000297681  0
0.00964932 0.000234356  0
0.0109501 0.000162537  0
0.0123983 8.12282e-05  0
0.0140139 -1.07186e-05  0
0.0158193 -0.000114626  0
0.01784 -0.000232027  0
0.0201046 -0.000364702  0
0.0226456 -0.000514739  0
0.0255001 -0.0006846  0
0.0287106 -0.000877219  0
0.0323261 -0.00109614  0
0.0364034 -0.00134569  0
0.0410091 -0.00163128  0
0.0462222 -0.00195975  0
0.0521373 -0.00233999  0
0.0588697 -0.00278384  0
0.066563 -0.00330755  0
0.0754 -0.00393416  0
0.0856205 -0.0046976  0
0.0975506 -0.00565022  0
0.111654 -0.0068771  0
0.128626 -0.00852569  0
0.149588 -0.0108722  0
0.176502 -0.0144842  0
0.213201 -0.020662  0
0.268095 -0.0326851  0
0.358342 -0.0560195  0
0.207566 0.207566  0
0.000352711 0.00175487  0
0.000976627 0.00173617  0
0.00152658 0.00170635  0
0.00209541 0.00166528  0
0.00269087 0.00161245  0
0.00332106 0.00154721  0
0.00399452 0.00146873  0
0.00472042 0.00137599  0
0.0055086 0.00126778  0
0.00636976 0.00114266  0
0.00731561 0.000998974  0
0.00835903 0.000834774  0
0.00951425 0.000647827  0
0.0107971 0.000435558  0
0.0122251 0.000195004  0
0.0138181 -7.72467e-05  0
0.0155981 -0.000385128  0
0.0175901 -0.000733191  0
0.019822 -0.00112673  0
0.0223258 -0.00157193  0
0.0251378 -0.00207608  0
0.0282992 -0.00264787  0
0.0318577 -0.00329772  0
0.0358684 -0.0040384  0
0.0403952 -0.00488569  0
0.0455137 -0.00585956  0
0.0513133 -0.00698579  0
0.0579023 -0.00829847  0
0.0654129 -0.00984394  0
0.0740102 -0.0116872  0
0.0839046 -0.0139226  0
0.0953713 -0.0166928  0
0.108779 -0.0202235  0
0.124631 -0.0248906  0
0.143629 -0.0313599  0
0.166711 -0.0408925  0
0.194915 -0.0560628  0
0.228272 -0.0824492  0
0.261803 -0.127722  0
0.138743 0.173623  0
0.000341009 0.00281313  0
0.000945922 0.00278574  0
0.00148105 0.00273985  0
0.00203452 0.00267522  0
0.00261386 0.00259107  0
0.00322694 0.00248633  0
0.00388209 0.00235966  0
0.00458819 0.00220939  0
0.00535482 0.00203354  0
0.00619238 0.00182977  0
0.00711224 0.00159534  0
0.0081269 0.00132707  0
0.00925017 0.00102129  0
0.0104974 0.000673787  0
0.0118856 0.000279686  0
0.0134338 -0.000166606  0
0.0151635 -0.000671533  0
0.0170985 -0.00124255  0
0.019266 -0.00188829  0
0.0216964 -0.00261884  0
0.0244243 -0.00344605  0
0.0274891 -0.00438396  0
0.0309357 -0.00544937  0
0.0348155 -0.0066627  0
0.0391881 -0.00804903  0
0.0441222 -0.00963984  0
0.0496985 -0.0114753  0
0.0560117 -0.0136077  0
0.0631745 -0.0161072  0
0.0713215 -0.01907  0
0.080615 -0.0226321  0
0.0912499 -0.0269917  0
0.103456 -0.0324475  0
0.11749 -0.0394651  0
0.133586 -0.0487935  0
0.151797 -0.0616681  0
0.171525 -0.0801366  0
0.190257 -0.107386  0
0.200426 -0.144946  0
0.100984 -0.0894798  0
0.000324989 0.00388465  0
0.000902997 0.00384896  0
0.00141604 0.00378764  0
0.00194663 0.00370038  0
0.00250198 0.00358609  0
0.00308964 0.00344332  0
0.00371757 0.00327022  0
0.0043943 0.00306451  0
0.00512897 0.00282348  0
0.00593155 0.0025439  0
0.0068129 0.00222202  0
0.00778498 0.00185347  0
0.00886096 0.00143322  0
0.0100555 0.000955459  0
0.0113847 0.00041353  0
0.0128669 -0.000200225  0
0.0145222 -0.000894618  0
0.0163733 -0.0016798  0
0.0184457 -0.00256753  0
0.0207681 -0.00357145  0
0.0233726 -0.00470754  0
0.0262959 -0.0059946  0
0.029579 -0.00745503  0
0.0332687 -0.00911574  0
0.0374181 -0.0110095  0
0.0420874 -0.013177  0
0.0473455 -0.015669  0
0.0532703 -0.018551  0
0.0599505 -0.0219082  0
0.0674852 -0.0258545  0
0.0759829 -0.0305449  0
0.0855559 -0.036195  0
0.0963051 -0.0431103  0
0.108285 -0.0517291  0
0.121426 -0.0626811  0
0.135367 -0.0768491  0
0.14914 -0.0953745  0
0.160691 -0.119351  0
0.16606 -0.146981  0
0.0832764 -0.116228  0
0.000304884 0.00497606  0
0.000848463 0.00493255  0
0.00133245 0.00485668  0
0.00183296 0.00474798  0
0.0023568 0.00460514  0
0.00291106 0.00442631  0
0.00350328 0.00420918  0
0.00414144 0.00395088  0
0.0048342 0.00364801  0
0.00559092 0.00329651  0
0.0064218 0.00289167  0
0.00733809 0.00242801  0
0.00835216 0.0018992  0
0.00947769 0.00129799  0
0.0107299 0.000616029  0
0.0121257 -0.000156242  0
0.0136839 -0.0010298  0
0.0154256 -0.00201727  0
0.0173743 -0.00313317  0
0.0195564 -0.00439434  0
0.0220011 -0.00582034  0
0.0247416 -0.00743403  0
0.0278145 -0.0092624  0
0.031261 -0.0113375  0
0.0351269 -0.0136981  0
0.0394627 -0.016391  0
0.0443245 -0.0194742  0
0.0497725 -0.0230203  0
0.055871 -0.0271213  0
0.0626849 -0.0318958  0
0.0702746 -0.0374987  0
0.0786845 -0.0441336  0
0.087922 -0.05207  0
0.0979193 -0.0616605  0
0.108466 -0.0733527  0
0.119103 -0.0876723  0
0.128982 -0.105122  0
0.136768 -0.12586  0
0.140201 -0.147735  0
0.0702314 -0.124048  0
0.000280975 0.00609372  0
0.000783082 0.00604298  0
0.00123144 0.00595359  0
0.00169509 0.00582497  0
0.0021803 0.00565553  0
0.00269367 0.0054431  0
0.00324214 0.00518492  0
0.00383312 0.00487759  0
0.0044746 0.00451705  0
0.00517521 0.00409849  0
0.00594439 0.0036163  0
0.00679251 0.00306397  0
0.00773094 0.00243402  0
0.00877229 0.00171784  0
0.0099305 0.000905556  0
0.0112211 -1.41066e-05  0
0.0126611 -0.00105407  0
0.0142699 -0.00222912  0
0.0160686 -0.00355623  0
0.0180809 -0.00505494  0
0.0203329 -0.0067478  0
0.0228538 -0.00866098  0
0.0256755 -0.010825  0
0.028833 -0.0132758  0
0.0323646 -0.016056  0
0.0363113 -0.0192162  0
0.0407161 -0.022818  0
0.0456232 -0.0269359  0
0.051075 -0.0316619  0
0.0571079 -0.0371098  0
0.0637452 -0.0434211  0
0.0709845 -0.0507715  0
0.0787783 -0.0593761  0
0.0870027 -0.0694903  0
0.0954146 -0.0813972  0
0.103597 -0.0953651  0
0.110919 -0.111548  0
0.116559 -0.129779  0
0.119013 -0.148163  0
0.0595892 -0.128358  0
0.000253593 0.00724361  0
0.000707753 0.00718633  0
0.00111441 0.00708464  0
0.0015349 0.00693785  0
0.00197493 0.00674414  0
0.00244045 0.00650101  0
0.00293776 0.00620531  0
0.00347357 0.00585315  0
0.00405509 0.00543989  0
0.00469016 0.00496001  0
0.00538729 0.00440711  0
0.00615581 0.00377377  0
0.00700602 0.00305143  0
0.00794922 0.00223028  0
0.00899794 0.00129911  0
0.0101661 0.000245128  0
0.0114689 -0.000946283  0
0.0129234 -0.00229179  0
0.0145485 -0.00381042  0
0.0163648 -0.00552395  0
0.0183951 -0.00745734  0
0.0206644 -0.00963929  0
0.0231996 -0.0121029  0
0.0260301 -0.0148867  0
0.0291865 -0.0180354  0
0.0327008 -0.0216016  0
0.0366048 -0.0256469  0
0.0409285 -0.0302446  0
0.045697 -0.0354817  0
0.0509257 -0.0414613  0
0.0566129 -0.0483053  0
0.0627295 -0.0561558  0
0.0692032 -0.065173  0
0.0758981 -0.0755279  0
0.0825914 -0.087381  0
0.0889518 -0.100842  0
0.0945395 -0.115899  0
0.0988532 -0.132301  0
0.100741 -0.148442  0
0.0504268 -0.131088  0
0.000223112 0.00843129  0
0.000623505 0.00836822  0
0.000982936 0.00825562  0
0.00135458 0.00809265  0
0.00174346 0.0078773  0
0.00215484 0.00760678  0
0.00259428 0.00727759  0
0.00306769 0.0068854  0
0.00358145 0.00642505  0
0.00414243 0.00589042  0
0.00475815 0.00527439  0
0.00543681 0.00456873  0
0.00618744 0.00376395  0
0.00701997 0.0028492  0
0.00794534 0.00181211  0
0.00897565 0.000638565  0
0.0101242 -0.000687472  0
0.0114058 -0.00218424  0
0.0128365 -0.00387245  0
0.014434 -0.00577567  0
0.0162176 -0.00792071  0
0.0182082 -0.0103381  0
0.020428 -0.0130628  0
0.0229005 -0.0161346  0
0.0256498 -0.0195993  0
0.0286998 -0.0235092  0
0.0320731 -0.0279248  0
0.0357884 -0.0329153  0
0.0398583 -0.0385601  0
0.0442842 -0.0449492  0
0.0490507 -0.0521838  0
0.0541168 -0.0603738  0
0.0594062 -0.0696329  0
0.0647947 -0.0800675  0
0.0701004 -0.0917571  0
0.0750787 -0.104722  0
0.0794347 -0.118881  0
0.0828633 -0.133981  0
0.0843893 -0.148635  0
0.0422349 -0.132899  0
0.000189942 0.00966179  0
0.000531475 0.00959375  0
0.000838812 0.00947176  0
0.00115657 0.00929482  0
0.00148905 0.00906073  0
0.00184074 0.00876649  0
0.00221638 0.00840827  0
0.00262103 0.00798138  0
0.00306011 0.0074802  0
0.0035395 0.00689808  0
0.00406559 0.00622732  0
0.00464536 0.00545896  0
0.00528649 0.00458274  0
0.00599738 0.00358694  0
0.0067873 0.00245818  0
0.00766647 0.00118128  0
0.00864608 -0.000260988  0
0.00973846 -0.00188813  0
0.0109571 -0.00372219  0
0.0123165 -0.00578813  0
0.0138326 -0.00811411  0
0.0155223 -0.010732  0
0.0174032 -0.0136776  0
0.0194936 -0.0169915  0
0.0218118 -0.0207195  0
0.0243752 -0.0249129  0
0.0271987 -0.0296293  0
0.0302933 -0.034933  0
0.0336631 -0.040895  0
0.0373019 -0.0475927  0
0.0411883 -0.0551077  0
0.0452805 -0.0635234  0
0.0495095 -0.0729176  0
0.0537739 -0.0833523  0
0.0579364 -0.0948577  0
0.0618274 -0.107409  0
0.065258 -0.1209  0
0.0680484 -0.1351  0
0.0693217 -0.148775  0
0.0346904 -0.134107  0
0.000154528 0.0109395  0
0.000432901 0.0108674  0
0.000683978 0.0107377  0
0.00094355 0.0105491  0
0.00121513 0.0102995  0
0.00150238 0.00998549  0
0.00180917 0.00960308  0
0.00213962 0.00914725  0
0.00249815 0.00861202  0
0.00288955 0.0079903  0
0.00331902 0.00727388  0
0.00379224 0.00645324  0
0.00431542 0.00551748  0
0.00489541 0.00445414  0
0.00553968 0.00324906  0
0.00625648 0.00188619  0
0.00705482 0.000347352  0
0.00794457 -0.00138793  0
0.00893645 -0.00334275  0
0.0100421 -0.00554306  0
0.0112738 -0.00801799  0
0.0126447 -0.0108002  0
0.0141684 -0.0139261  0
0.0158586 -0.0174363  0
0.0177285 -0.021376  0
0.0197901 -0.0257949  0
0.0220529 -0.0307477  0
0.0245226 -0.0362935  0
0.0271986 -0.0424955  0
0.0300715 -0.0494195  0
0.0331199 -0.0571318  0
0.036307 -0.0656951  0
0.0395772 -0.0751621  0
0.0428546 -0.0855669  0
0.0460438 -0.0969125  0
0.0490363 -0.109155  0
0.0517224 -0.122188  0
0.0540101 -0.135809  0
0.0550889 -0.148878  0
0.0275666 -0.134874  0
0.000117341 0.0122683  0
0.000329102 0.012193  0
0.000520515 0.0120573  0
0.000718388 0.0118597  0
0.000925396 0.0115978  0
0.00114433 0.0112683  0
0.00137814 0.0108668  0
0.00162996 0.0103882  0
0.00190316 0.00982615  0
0.00220136 0.00917321  0
0.00252853 0.00842079  0
0.00288896 0.00755894  0
0.00328739 0.00657624  0
0.00372896 0.00545968  0
0.00421934 0.00419449  0
0.00476475 0.00276396  0
0.00537196 0.00114921  0
0.00604835 -0.000670984  0
0.00680193 -0.00272044  0
0.00764128 -0.00502583  0
0.00857552 -0.00761691  0
0.00961418 -0.0105268  0
0.010767 -0.0137921  0
0.0120437 -0.0174534  0
0.0134532 -0.0215549  0
0.0150035 -0.0261447  0
0.0167002 -0.0312745  0
0.0185456 -0.036999  0
0.0205371 -0.0433748  0
0.0226655 -0.0504589  0
0.0249128 -0.0583057  0
0.0272502 -0.0669635  0
0.0296377 -0.0764691  0
0.0320234 -0.0868409  0
0.0343479 -0.0980703  0
0.0365514 -0.110112  0
0.0385859 -0.122871  0
0.040431 -0.136177  0
0.041339 -0.148956  0
0.0206861 -0.135257  0
7.88762e-05 0.0136511  0
0.000221465 0.0135737  0
0.000350615 0.0134337  0
0.000484106 0.0132297  0
0.000623747 0.0129592  0
0.000771422 0.0126185  0
0.000929116 0.0122034  0
0.00109894 0.0117085  0
0.00128316 0.0111271  0
0.00148421 0.0104517  0
0.00170477 0.00967339  0
0.00194771 0.00878187  0
0.0022162 0.00776539  0
0.0025137 0.00661054  0
0.002844 0.00530212  0
0.00321124 0.00382294  0
0.00361993 0.00215366  0
0.00407499 0.000272547  0
0.00458168 -0.00184472  0
0.00514566 -0.00422527  0
0.0057729 -0.00689923  0
0.00646957 -0.00989998  0
0.00724191 -0.0132642  0
0.00809598 -0.0170321  0
0.00903736 -0.021247  0
0.0100707 -0.0259558  0
0.0111989 -0.0312078  0
0.0124226 -0.0370542  0
0.013739 -0.0435469  0
0.015141 -0.0507364  0
0.0166157 -0.0586692  0
0.018144 -0.0673847  0
0.0197003 -0.0769104  0
0.021254 -0.0872577  0
0.0227737 -0.0984163  0
0.024236 -0.11035  0
0.0256404 -0.12299  0
0.0270319 -0.136213  0
0.027735 -0.14899  0
0.0138682 -0.134977  0
3.96699e-05 0.0150902  0
0.000111518 0.0150117  0
0.000176741 0.0148694  0
0.000244147 0.0146617  0
0.000314651 0.0143861  0
0.000389202 0.0140389  0
0.0004688 0.0136157  0
0.000554506 0.013111  0
0.00064746 0.0125181  0
0.00074889 0.0118293  0
0.000860129 0.0110355  0
0.000982627 0.0101262  0
0.00111797 0.00908948  0
0.00126788 0.00791168  0
0.00143426 0.00657733  0
0.00161916 0.005069  0
0.00182482 0.00336704  0
0.00205367 0.00144944  0
0.00230833 -0.00070839  0
0.00259155 -0.00313383  0
0.00290624 -0.00585723  0
0.00325539 -0.00891204  0
0.003642 -0.0123349  0
0.00406892 -0.0161657  0
0.00453871 -0.0204475  0
0.00505334 -0.0252259  0
0.00561398 -0.0305488  0
0.00622049 -0.0364652  0
0.00687103 -0.0430242  0
0.00756155 -0.0502724  0
0.0082853 -0.058252  0
0.0090326 -0.0669974  0
0.00979109 -0.076532  0
0.0105469 -0.0868648  0
0.0112881 -0.0979888  0
0.0120119 -0.109882  0
0.0127435 -0.122512  0
0.0135823 -0.135838  0
0.0136968 -0.148641  0
0.00667302 -0.135715  0
2.35762e-06 0.0158218  0
7.17059e-06 0.0157429  0
1.22478e-05 0.0155997  0
1.7612e-05 0.0153907  0
2.32407e-05 0.0151132  0
2.91939e-05 0.0147638  0
3.55469e-05 0.0143377  0
4.23815e-05 0.0138296  0
4.97876e-05 0.0132326  0
5.7861e-05 0.012539  0
6.67031e-05 0.0117397  0
7.64252e-05 0.010824  0
8.71484e-05 0.00978008  0
9.9004e-05 0.00859406  0
0.000112134 0.00725045  0
0.000126692 0.0057317  0
0.000142842 0.00401807  0
0.000160762 0.00208745  0
0.000180659 -8.48681e-05  0
0.000202769 -0.00252634  0
0.000227294 -0.00526732  0
0.000254734 -0.00834163  0
0.000285831 -0.0117858  0
0.00032096 -0.0156394  0
0.000360163 -0.0199451  0
0.000403543 -0.0247483  0
0.000451293 -0.0300964  0
0.000503505 -0.0360377  0
0.00056011 -0.04262  0
0.000620813 -0.0498887  0
0.000685013 -0.0578843  0
0.000751724 -0.0666395  0
0.000819502 -0.0761762  0
0.000886393 -0.0865031  0
0.000949904 -0.0976147  0
0.00100781 -0.109497  0
0.00108132 -0.122161  0
0.00150599 -0.135911  0
0.00188451 -0.14829  0
0.000942254 -0.14256  0
4.18591e-05 0.0079097  0
0.000118353 0.0078702  0
0.000188476 0.00779852  0
0.000260951 0.00769397  0
0.00033686 0.00755518  0
0.000417152 0.00738035  0
0.000502892 0.00716722  0
0.00059523 0.00691301  0
0.000695394 0.00661438  0
0.000804713 0.0062674  0
0.000924633 0.00586752  0
0.00105672 0.00540947  0
0.0012027 0.00488722  0
0.00136445 0.00429392  0
0.00154403 0.00362177  0
0.00174368 0.00286202  0
0.00196585 0.00200479  0
0.00221322 0.00103901  0
0.00248866 -4.767e-05  0
0.0027952 -0.00126899  0
0.0031364 -0.00264011  0
0.00351582 -0.00417809  0
0.00393674 -0.00590119  0
0.00440261 -0.007829  0
0.00491669 -0.00998284  0
0.0054814 -0.0123855  0
0.00609823 -0.0150607  0
0.0067675 -0.0180325  0
0.00748765 -0.0213247  0
0.0082547 -0.02496  0
0.00906167 -0.0289586  0
0.00989824 -0.0333367  0
0.0107509 -0.0381051  0
0.0116039 -0.043268  0
0.0124438 -0.0488226  0
0.0132889 -0.0547619  0
0.0144643 -0.0611037  0
0.0145474 -0.068145  0
0.00788467 -0.0741451  0
0.000942254 -0.0741451  0
0 0  0
0 0  0
0 0  0
0 0  0
0 0  0
0 0  0
0 0  0
0 0  0
0 0  0
0 0  0
0 0  0
0 0  0
0 0  0
0 0  0
0 0  0
0 0  0
0 0  0
0 0  0
0 0  0
0 0  0
0 0  0
0 0  0
0 0  0
0 0  0
0 0  0
0 0  0
0 0  0
0 0  0
0 0  0
0 0  0
0 0  0
0 0  0
0 0  0
0 0  0
0 0  0
0 0  0
0 0  0
0 0  0
0 0  0
0 0  0
0 0  0
0 0  0
0 0  0
0 0  0
0 0  0
0 0  0
0 0  0
0 0  0
0 0  0
0 0  0
0 0  0
0 0  0
0 0  0
0 0  0
0 0  0
0 0  0
0 0  0
-6.38707e-06 -0.0755305  0
-0.000249338 -0.0755305  0
-0.000271647 -0.0757671  0
0.000185414 -0.0757941  0
0.000218682 -0.0755845  0
4.57245e-06 -0.0755845  0
0 0  0
0 0  0
0 0  0
0 0  0
0 0  0
0 0  0
0 0  0
0 0  0
0 0  0
0 0  0
0 0  0
0 0  0
0 0  0
0 0  0
0 0  0
0 0  0
0 0  0
0 0  0
0 0  0
0 0  0
0 0  0
0 0  0
0 0  0
0 0  0
0 0  0
0 0  0
0 0  0
0 0  0
0 0  0
0 0  0
0 0  0
0 0  0
0 0  0
-0.000543981 -0.0749615  0
-0.000550368 -0.150492  0
-1.27741e-05 -0.151061  0
-8.092e-06 -0.151539  0
2.86752e-06 -0.151594  0
9.1449e-06 -0.151169  0
0.000610642 -0.150588  0
0.00060607 -0.0750033  0
0 0  0
0 0  0
0 0  0
0 0  0
0 0  0
0 0  0
0 0  0
0 0  0
0 0  0
0 0  0
0 0  0
0 0  0
0 0  0
0 0  0
0 0  0
0 0  0
0 0  0
0 0  0
0 0  0
0 0  0
0 0  0
0 0  0
0 0  0
0 0  0
0 0  0
0 0  0
0 0  0
0 0  0
0 0  0
0 0  0
0 0  0
0 0  0
-0.000543981 -0.14973  0
-0.00108796 -0.149923  0
-0.000788804 -0.150589  0
-0.000274051 -0.150988  0
0.000190191 -0.151078  0
0.000825489 -0.150785  0
0.00121214 -0.150007  0
0.00060607 -0.150221  0
0 0  0
0 0  0
0 0  0
0 0  0
0 0  0
0 0  0
0 0  0
0 0  0
0 0  0
0 0  0
0 0  0
0 0  0
0 0  0
0 0  0
0 0  0
0 0  0
0 0  0
0 0  0
0 0  0
0 0  0
0 0  0
0 0  0
0 0  0
0 0  0
0 0  0
0 0  0
0 0  0
0 0  0
0 0  0
0 0  0
0 0  0
0 0  0
-0.000350868 -0.14704  0
-0.000990275 -0.149634  0
-0.001041 -0.149584  0
-0.000492449 -0.149972  0
0.000205979 -0.150173  0
0.00112 -0.150156  0
0.00164349 -0.150004  0
0.000820325 -0.150189  0
0 0  0
0 0  0
0 0  0
0 0  0
0 0  0
0 0  0
0 0  0
0 0  0
0 0  0
0 0  0
0 0  0
0 0  0
0 0  0
0 0  0
0 0  0
0 0  0
0 0  0
0 0  0
0 0  0
0 0  0
0 0  0
0 0  0
0 0  0
0 0  0
0 0  0
0 0  0
0 0  0
0 0  0
0 0  0
0 0  0
0 0  0
0 0  0
0.00205079 -0.148438  0
0.00167287 -0.146917  0
-0.00100698 -0.148029  0
-0.000858605 -0.149141  0
6.1997e-06 -0.149484  0
0.00102941 -0.149698  0
0.00158498 -0.149999  0
0.000791305 -0.149726  0
0 0  0
0 0  0
0 0  0
0 0  0
0 0  0
0 0  0
0 0  0
0 0  0
0 0  0
0 0  0
0 0  0
0 0  0
0 0  0
0 0  0
0 0  0
0 0  0
0 0  0
0 0  0
0 0  0
0 0  0
0 0  0
0 0  0
0 0  0
0 0  0
0 0  0
0 0  0
0 0  0
0 0  0
0 0  0
0 0  0
0 0  0
0 0  0
-0.00187161 -0.148411  0
-0.00374322 -0.144488  0
-0.0033744 -0.146605  0
-0.00194366 -0.14906  0
-0.000360226 -0.148928  0
0.000628306 -0.149181  0
0.00109532 -0.149996  0
0.000547662 -0.149753  0
0 0  0
0 0  0
0 0  0
0 0  0
0 0  0
0 0  0
0 0  0
0 0  0
0 0  0
0 0  0
0 0  0
0 0  0
0 0  0
0 0  0
0 0  0
0 0  0
0 0  0
0 0  0
0 0  0
0 0  0
0 0  0
0 0  0
0 0  0
0 0  0
0 0  0
0 0  0
0 0  0
0 0  0
0 0  0
0 0  0
0 0  0
0 0  0
-0.00187161 -0.0722442  0
-0.00459143 -0.145345  0
-0.00543964 -0.146202  0
-0.00305168 -0.151739  0
-0.000370833 -0.148972  0
-7.79488e-05 -0.148877  0
0.000508687 -0.149437  0
0.000547662 -0.0749981  0
0 0  0
0 0  0
0 0  0
0 0  0
0 0  0
0 0  0
0 0  0
0 0  0
0 0  0
0 0  0
0 0  0
0 0  0
0 0  0
0 0  0
0 0  0
0 0  0
0 0  0
0 0  0
0 0  0
0 0  0
0 0  0
0 0  0
0 0  0
0 0  0
0 0  0
0 0  0
0 0  0
0 0  0
0 0  0
0 0  0
0 0  0
0 0  0
0 0  0
-0.00271982 -0.0731012  0
-0.0014773 -0.0731012  0
-0.00152048 -0.0770635  0
-0.00299587 -0.0746324  0
-0.000271846 -0.0744385  0
-3.89744e-05 -0.0744385  0
0 0  0
0 0  0
0 0  0
0 0  0
0 0  0
0 0  0
0 0  0
0 0  0
0 0  0
0 0  0
0 0  0
0 0  0
0 0  0
0 0  0
0 0  0
0 0  0
0 0  0
0 0  0
0 0  0
0 0  0
0 0  0
0 0  0
0 0  0
0 0  0
0 0  0
0 0  0
0 0  0
0 0  0
0 0  0
0 0  0
0 0  0
0 0  0
0 0  0
0 0  0
0 0  0
0 0  0
0 0  0
0 0  0
0 0  0
0 0  0
0 0  0
0 0  0
0 0  0
0 0  0
0 0  0
0 0  0
0 0  0
0 0  0
0 0  0
0 0  0
0 0  0
0 0  0
0 0  0
0 0  0
0 0  0
0 0  0
0 0  0
0 0  0
0 0  0
0 0  0
0 0  0
0 0  0
0 0  0
0 0  0
0 0  0
0 0  0
0 0  0
0 0  0
0 0  0
0 0  0
0 0  0
0 0  0
0 0  0
0 0  0
0 0  0
0 0  0
0 0  0
0 0  0
0 0  0
0 0  0
0 0  0
0 0  0
0 0  0
0 0  0
0 0  0
0 0  0
0 0  0
0 0  0
0 0  0
0 0  0
0 0  0
0 0  0
0 0  0
0 0  0
0 0  0
0 0  0
0 0  0
0 0  0
0 0  0
0 0  0
0 0  0
0 0  0
0 0  0
0 0  0
0 0  0
0 0  0
0 0  0
0 0  0
0 0  0
0 0  0
0 0  0
0 0  0
0 0  0
0 0  0
0 0  0
0 0  0
0 0  0
0 0  0
0 0  0
0 0  0
0 0  0
0 0  0
0 0  0
0 0  0
0 0  0
0 0  0
0 0  0
0 0  0
0 0  0
0 0  0
0 0  0
0 0  0
0 0  0
0 0  0
0 0  0
0 0  0
0 0  0
0 0  0
0 0  0
0 0  0
0 0  0
0 0  0
0 0  0
0 0  0
0 0  0
0 0  0
0 0  0
0 0  0
0 0  0
0 0  0
0 0  0
0 0  0
0 0  0
0 0  0
0 0  0
0 0  0
0 0  0
0 0  0
0 0  0
0 0  0
0 0  0
0 0  0
0 0  0
0 0  0
0 0  0
0 0  0
0 0  0
0 0  0
0 0  0
0 0  0
0 0  0
0 0  0
0 0  0
0 0  0
0 0  0
0 0  0
0 0  0
0 0  0
0 0  0
0 0  0
0 0  0
0 0  0
0 0  0
0 0  0
0 0  0
0 0  0
0 0  0
0 0  0
0 0  0
0 0  0
0 0  0
0 0  0
0 0  0
0 0  0
0 0  0
0 0  0
0 0  0
0 0  0
0 0  0
0 0  0
0 0  0
0 0  0
0 0  0
0 0  0
0 0  0
0 0  0
0 0  0
0 0  0
0 0  0
0 0  0
0 0  0
0 0  0
0 0  0
0 0  0
0 0  0
0 0  0
0 0  0
0 0  0
0 0  0
0 0  0
0 0  0
0 0  0
0 0  0
0 0  0
0 0  0
0 0  0
0 0  0
0 0  0
0 0  0
0 0  0
0 0  0
0 0  0
0 0  0
0 0  0
0 0  0
0 0  0
0 0  0
0 0  0
0 0  0
0 0  0
0 0  0
0 0  0
0 0  0
0 0  0
0 0  0
0 0  0
0 0  0
0 0  0
0 0  0
0 0  0
0 0  0
0 0  0
0 0  0
0 0  0
0 0  0
0 0  0
0 0  0

SCALARS pressure double 1
LOOKUP_TABLE default
1.7209
1.72041
1.71956
1.71831
1.71666
1.71456
1.71201
1.70897
1.70539
1.70123
1.69644
1.69095
1.68469
1.67757
1.66949
1.66036
1.65003
1.63837
1.62521
1.61037
1.59363
1.57476
1.55347
1.52944
1.50231
1.47163
1.4369
1.39753
1.35278
1.30181
1.24353
1.17664
1.09943
1.00976
0.904822
0.781052
0.634332
0.461928
0.271749
0.10284
1.53053
1.53006
1.52922
1.528
1.52636
1.5243
1.52179
1.51879
1.51527
1.51117
1.50645
1.50104
1.49486
1.48784
1.47989
1.47088
1.4607
1.4492
1.43623
1.4216
1.40511
1.38652
1.36555
1.34189
1.31518
1.285
1.25086
1.21218
1.16828
1.11833
1.06133
0.996027
0.920854
0.833771
0.732018
0.611565
0.465523
0.278535
0.00413206
0
1.34992
1.34947
1.34866
1.34747
1.34588
1.34388
1.34144
1.33853
1.3351
1.33112
1.32653
1.32127
1.31527
1.30845
1.30071
1.29196
1.28206
1.27089
1.25829
1.24409
1.22807
1.21003
1.18968
1.16675
1.14087
1.11167
1.07868
1.04137
0.999113
0.951161
0.896627
0.834425
0.763218
0.681312
0.586497
0.475751
0.344765
0.187625
0.00065536
0
1.17904
1.17861
1.17783
1.1767
1.17518
1.17327
1.17093
1.16814
1.16486
1.16105
1.15665
1.15161
1.14587
1.13934
1.13193
1.12355
1.11407
1.10338
1.09133
1.07774
1.06244
1.04519
1.02577
1.0039
0.979251
0.951475
0.920156
0.88482
0.844922
0.799828
0.748799
0.690972
0.625332
0.55068
0.465615
0.368566
0.258056
0.133788
0.00020827
0
1.01788
1.01747
1.01674
1.01567
1.01424
1.01244
1.01024
1.00761
1.00452
1.00093
0.996786
0.99204
0.986625
0.98047
0.973492
0.965597
0.956678
0.946615
0.935271
0.92249
0.9081
0.891903
0.873678
0.853172
0.830105
0.804157
0.774971
0.742141
0.705215
0.663684
0.616984
0.564492
0.505538
0.439433
0.365542
0.283467
0.193468
0.0973645
0.000111858
0
0.866403
0.866027
0.865356
0.864366
0.863046
0.861379
0.859342
0.856911
0.854052
0.850728
0.846896
0.842504
0.837495
0.831801
0.825347
0.818045
0.809799
0.800498
0.790017
0.778217
0.764939
0.750007
0.733222
0.714364
0.693187
0.669418
0.642754
0.612867
0.5794
0.54197
0.500183
0.453647
0.402004
0.344996
0.28257
0.215079
0.143625
0.0705726
7.12512e-05
0
0.724603
0.724264
0.723657
0.722762
0.721567
0.720057
0.718213
0.71601
0.71342
0.710409
0.706938
0.70296
0.698422
0.693266
0.687421
0.680811
0.673347
0.664932
0.655454
0.64479
0.632798
0.619325
0.604199
0.58723
0.568209
0.546909
0.523087
0.496485
0.466836
0.433877
0.397363
0.357095
0.312969
0.265043
0.213648
0.159553
0.104187
0.049904
4.88225e-05
0
0.592451
0.592153
0.591618
0.590828
0.589774
0.588441
0.586813
0.584868
0.582582
0.579924
0.57686
0.573348
0.569343
0.564792
0.559634
0.553803
0.54722
0.539801
0.531449
0.522057
0.511505
0.499661
0.486379
0.471501
0.454856
0.436261
0.415526
0.39246
0.366875
0.338607
0.307531
0.2736
0.236887
0.197658
0.156464
0.114267
0.0725794
0.0335834
3.50589e-05
0
0.469914
0.469661
0.469205
0.468531
0.467631
0.466493
0.465103
0.463442
0.46149
0.45922
0.456603
0.453604
0.450184
0.446298
0.441896
0.436919
0.431303
0.424975
0.417855
0.409854
0.40087
0.390796
0.379513
0.366892
0.352797
0.337088
0.319623
0.300263
0.27889
0.255413
0.229797
0.202095
0.172489
0.141359
0.109355
0.0774951
0.0472573
0.0206449
2.60599e-05
0
0.356961
0.356755
0.356383
0.355834
0.3551
0.354172
0.353038
0.351683
0.35009
0.348238
0.346102
0.343656
0.340866
0.337696
0.334106
0.330048
0.32547
0.320313
0.314514
0.307999
0.300692
0.292504
0.283342
0.273108
0.261699
0.249009
0.234937
0.219392
0.202301
0.183629
0.163396
0.141707
0.118796
0.0950742
0.0712002
0.0481565
0.0273292
0.0105675
1.99781e-05
0
0.253554
0.253397
0.253115
0.252697
0.252139
0.251432
0.250569
0.249537
0.248325
0.246915
0.245289
0.243427
0.241303
0.23889
0.236158
0.23307
0.229587
0.225666
0.221257
0.216307
0.210758
0.204545
0.1976
0.189851
0.181224
0.171646
0.161049
0.149375
0.136587
0.12268
0.107698
0.0917623
0.0751003
0.0580926
0.0413286
0.0256783
0.0123793
0.00313591
1.5765e-05
0
0.159654
0.15955
0.15936
0.159078
0.158702
0.158227
0.157645
0.156951
0.156134
0.155184
0.154089
0.152835
0.151404
0.14978
0.14794
0.145861
0.143517
0.140878
0.137912
0.134583
0.130852
0.126679
0.122018
0.116821
0.111042
0.104636
0.0975597
0.0897818
0.0812852
0.0720775
0.0622042
0.0517657
0.0409422
0.0300258
0.0194665
0.00993639
0.00242971
-0.0015692
4.92622e-06
0
0.075222
0.0751696
0.0750743
0.0749331
0.0747441
0.0745051
0.074213
0.0738639
0.0734534
0.0729761
0.0724258
0.0717954
0.0710765
0.0702601
0.0693355
0.0682909
0.0671132
0.0657877
0.0642981
0.0626267
0.0607539
0.0586612
0.0563251
0.0537226
0.0508306
0.0476274
0.0440936
0.0402149
0.0359856
0.0314131
0.0265249
0.0213779
0.0160712
0.0107641
0.00570289
0.00126325
-0.00197024
-0.00302195
-0.000145552
0
-9.33238e-07
-1.03327e-06
-1.11209e-06
-1.16371e-06
-1.22519e-06
-1.30197e-06
-1.3954e-06
-1.50697e-06
-1.63887e-06
-1.79128e-06
-1.96644e-06
-2.16645e-06
-2.39346e-06
-2.64981e-06
-2.93796e-06
-3.26035e-06
-3.61944e-06
-4.01826e-06
-4.46943e-06
-4.9746e-06
-5.51389e-06
-6.13603e-06
-6.9893e-06
-7.85547e-06
-8.6979e-06
-9.58336e-06
-1.04934e-05
-1.13978e-05
-1.22525e-05
-1.29969e-05
-1.35518e-05
-1.38186e-05
-1.36806e-05
-1.30044e-05
-1.16286e-05
-9.5277e-06
-1.45872e-05
-0.000157284
-0.0031686
0
0
0
0
0
0
0
0
0
0
0
0
0
0
0
0
0
0
0
0
0
0
0
0
0
0
0
0
0
0
0
0
0
0
0
0
0
0
0
0
0
0
0
0
0
0
0
0
0
0
0
0
0
0
0
0
0
0
0
0
0
0
0
0
0
0
0
0
0
0
0
0
0
0
0
0
0
0
0
0
0
0
0
0
0
0
0
0
0
0
0
0
0
0
0
0
0
0
0
0
0
0
0
0
0
0
0
0
0
0
0
0
0
0
0
0
0
0
0
0
0
0
0
0
0
0
0
0
0
0
0
0
0
0
0
0
0
0
0
-0.000217536
2.88645e-06
2.24611e-06
-0.000216151
0
0
0
0
0
0
0
0
0
0
0
0
0
0
0
0
0
0
0
0
0
0
0
0
0
0
0
0
0
0
0
0
0
0
0
-0.000144762
-0.00827093
-0.0114278
-0.0112784
-0.00799628
-0.000213692
0
0
0
0
0
0
0
0
0
0
0
0
0
0
0
0
0
0
0
0
0
0
0
0
0
0
0
0
0
0
0
0
0
0
-0.000113741
-0.0122036
-0.0168243
-0.0163506
-0.0111864
3.3921e-06
0
0
0
0
0
0
0
0
0
0
0
0
0
0
0
0
0
0
0
0
0
0
0
0
0
0
0
0
0
0
0
0
0
0
-0.00107214
-0.0144778
-0.0179376
-0.0167353
-0.0112726
3.60072e-06
0
0
0
0
0
0
0
0
0
0
0
0
0
0
0
0
0
0
0
0
0
0
0
0
0
0
0
0
0
0
0
0
0
0
-0.0163963
-0.0175781
-0.014336
-0.0120024
-0.00804311
-0.000221404
0
0
0
0
0
0
0
0
0
0
0
0
0
0
0
0
0
0
0
0
0
0
0
0
0
0
0
0
0
0
0
0
0
0
0
-0.0165713
-0.00105885
-0.000115988
-0.000147965
0
0
0
0
0
0
0
0
0
0
0
0
0
0
0
0
0
0
0
0
0
0
0
0
0
0
0
0
0
0
0
0
0
0
0
0
0
0
0
0
0
0
0
0
0
0
0
0
0
0
0
0
0
0
0
0
0
0
0
0
0
0
0
0
0
0
0
0
0
0
0
0
0
0
0
0
0
0
0
0
0
0
0
0
0
0
0
0
0
0
0
0
0
0
0
0
0
0
0
0
0
0
0
0
0
0
0
0
0
0
0
0
0
0
0
0
0
0
0
0
0
0
0
0
0
0
0
0
0
0
0
0
0
0
0
0
0
0
0
0
0
0
0
0
0
0
0
0
0
0
0
0
0
0
0
0
0
0
0
0
0
0
0
0
0
0
0
0
0
0
0
0
0
0
0
0
0
0
0
0
0
0
0
0
0
0
0
0
0
0
0
0
0
0
0
0
0
0
0
0
0
0
0
0
0
0
0
0
0
0
0
0
0
0
0
0
0
0
0
0
0
0
0
0
0
0
0
0
0
0
0
0
0
0
0
0
0
0
0
0
0
0
0
0
0
0
0
0
0
0
0
0
0
0
0
0
0
0
0
0
0
0
0
0
0
0
0
0
0
0
0
0
0
0
0
0
0
0
0
0
0
0
0
0
0
0
0
0
0
0
0
0
0
0
0
0
0
0
SCALARS rhs double 1
LOOKUP_TABLE default
-4.56821
-4.65717
-4.66074
-4.66365
-4.66646
-4.66919
-4.67187
-4.67452
-4.67714
-4.67977
-4.6824
-4.68506
-4.68776
-4.69051
-4.69331
-4.69617
-4.69909
-4.70209
-4.70515
-4.70829
-4.7115
-4.71478
-4.71813
-4.72156
-4.72506
-4.72865
-4.73234
-4.73617
-4.74016
-4.74441
-4.74905
-4.75431
-4.76065
-4.76901
-4.78159
-4.80441
-4.85856
-5.02785
-6.15923
-0.770994
0.34045
0.257478
0.256331
0.25572
0.255117
0.254519
0.253922
0.253323
0.252718
0.252105
0.251482
0.250846
0.250197
0.249533
0.248853
0.248157
0.247443
0.24671
0.245957
0.245185
0.244392
0.243573
0.242726
0.241843
0.240915
0.239929
0.238864
0.23769
0.236362
0.234809
0.232916
0.230491
0.227198
0.222403
0.21484
0.201783
0.176806
0.125082
0.334053
0
0.333338
0.254774
0.253724
0.25318
0.252643
0.252108
0.251574
0.251038
0.250496
0.249947
0.249388
0.248819
0.248238
0.247643
0.247035
0.246412
0.245773
0.245118
0.244443
0.243753
0.243042
0.242307
0.241545
0.240749
0.239909
0.239013
0.238041
0.236965
0.235744
0.234316
0.232586
0.230406
0.227535
0.223578
0.217881
0.209371
0.196442
0.179651
0.334053
0
0.325851
0.25244
0.251483
0.250997
0.250517
0.250039
0.24956
0.249079
0.248593
0.248101
0.2476
0.24709
0.246569
0.246036
0.245491
0.244933
0.244361
0.243775
0.243168
0.242548
0.241909
0.241248
0.24056
0.239839
0.239075
0.238258
0.237368
0.23638
0.23526
0.233955
0.232393
0.230466
0.228023
0.224847
0.220659
0.215156
0.208246
0.201213
0.334053
0
0.317554
0.249976
0.249121
0.248698
0.248279
0.247862
0.247445
0.247024
0.246599
0.246168
0.24573
0.245283
0.244827
0.244361
0.243883
0.243394
0.242893
0.242381
0.241844
0.241299
0.240735
0.24015
0.23954
0.238898
0.238214
0.237479
0.236675
0.235781
0.234767
0.233592
0.232202
0.230526
0.228475
0.225948
0.222855
0.21919
0.215182
0.210866
0.334053
0
0.308568
0.247414
0.246668
0.246312
0.24596
0.245607
0.245254
0.244898
0.244538
0.244173
0.2438
0.243421
0.243033
0.242636
0.24223
0.241814
0.241387
0.240948
0.240491
0.240019
0.239534
0.239029
0.238498
0.237937
0.237336
0.236686
0.235971
0.235172
0.234266
0.233221
0.231999
0.230554
0.228839
0.226817
0.224487
0.22193
0.219388
0.215759
0.334053
0
0.299016
0.244785
0.244155
0.24387
0.243586
0.243302
0.243016
0.242728
0.242435
0.242138
0.241835
0.241525
0.241209
0.240884
0.240552
0.24021
0.239859
0.239497
0.239124
0.238725
0.23832
0.237895
0.237446
0.236967
0.23645
0.235885
0.23526
0.234558
0.23376
0.232841
0.231774
0.230534
0.229098
0.227461
0.225657
0.223782
0.222031
0.218413
0.334053
0
0.289026
0.242122
0.241612
0.241399
0.241186
0.240972
0.240756
0.240537
0.240315
0.240088
0.239856
0.239618
0.239374
0.239124
0.238866
0.238601
0.238327
0.238043
0.237759
0.237429
0.237105
0.236761
0.236394
0.235998
0.235565
0.235086
0.234551
0.233944
0.233249
0.23245
0.231526
0.230463
0.229254
0.227909
0.22647
0.225028
0.223733
0.219869
0.334053
0
0.278724
0.239456
0.239068
0.238929
0.238788
0.238646
0.238501
0.238353
0.238201
0.238045
0.237885
0.23772
0.23755
0.237374
0.237192
0.237003
0.236807
0.236602
0.236398
0.236152
0.235902
0.23564
0.235354
0.23504
0.23469
0.234296
0.233848
0.233333
0.232739
0.23205
0.231255
0.230344
0.229318
0.228194
0.227013
0.225851
0.224828
0.220606
0.334053
0