# vtk DataFile Version 4.0
Nusif Fluid VTK output
ASCII
DATASET STRUCTURED_POINTS
DIMENSIONS 40 30 1
ORIGIN 0 0 0 
SPACING 0.2 0.2 1
POINT_DATA 1200 

VECTORS velocity double
0.00631783 -0.00562928  0
0.0188094 -0.00555009  0
0.0309921 -0.00538737  0
0.0427566 -0.00513616  0
0.0539191 -0.00478956  0
0.0642808 -0.00433935  0
0.0736265 -0.00377754  0
0.0817278 -0.00309849  0
0.0883496 -0.00230145  0
0.0932628 -0.00139301  0
0.0962611 -0.000389395  0
0.0971813 0.000682629  0
0.0959231 0.00178676  0
0.0924666 0.00287911  0
0.0868827 0.00391266  0
0.079334 0.00484269  0
0.0700653 0.00563196  0
0.0593849 0.00625397  0
0.0476432 0.00669297  0
0.0352148 0.00694072  0
0.0224872 0.00699266  0
0.00985526 0.00684556  0
-0.0022801 0.00649689  0
-0.0135178 0.00594885  0
-0.0234677 0.00521031  0
-0.0317714 0.00430376  0
-0.0381282 0.00326492  0
-0.0423195 0.00213961  0
-0.0442227 0.000978471  0
-0.0438166 -0.000168286  0
-0.0411753 -0.0012552  0
-0.0364588 -0.00224201  0
-0.0299098 -0.00308632  0
-0.0218791 -0.0037224  0
-0.0129132 -0.00402045  0
-0.00392137 -0.00374731  0
0.00366901 -0.00261824  0
0.00805939 -0.000546727  0
0.00784159 0.00199031  0
0.00323212 0.0038451  0
0.00639685 -0.017033  0
0.0190512 -0.0167961  0
0.0314061 -0.0163111  0
0.0433545 -0.0155627  0
0.0547161 -0.0145295  0
0.065293 -0.0131853  0
0.0748676 -0.011504  0
0.0832042 -0.00946628  0
0.0900553 -0.00706707  0
0.0951748 -0.00432433  0
0.0983368 -0.00128587  0
0.0993576 0.00196767  0
0.0981198 0.00532462  0
0.0945933 0.0086491  0
0.0888483 0.0117948  0
0.0810569 0.0146226  0
0.0714814 0.0170175  0
0.0604509 0.0189002  0
0.0483339 0.0202262  0
0.0355164 0.0209744  0
0.0223913 0.0211334  0
0.00935675 0.0206938  0
-0.00318155 0.0196459  0
-0.01481 0.0179909  0
-0.0251174 0.015752  0
-0.0337198 0.0129962  0
-0.0402942 0.0098335  0
-0.0446069 0.00640662  0
-0.0465318 0.00287323  0
-0.0460543 -0.000611145  0
-0.0432644 -0.00390625  0
-0.0383441 -0.00688857  0
-0.0315624 -0.00942955  0
-0.0232976 -0.0113322  0
-0.0141197 -0.0122107  0
-0.00494888 -0.0113748  0
0.00279617 -0.00798039  0
0.00734941 -0.00178183  0
0.00735263 0.00578673  0
0.0030535 0.0113041  0
0.00655411 -0.0287431  0
0.0195307 -0.0283542  0
0.0322255 -0.02756  0
0.0445385 -0.0263344  0
0.0562971 -0.0246389  0
0.0673068 -0.0224251  0
0.0773463 -0.0196425  0
0.0861656 -0.0162495  0
0.0934922 -0.0122288  0
0.0990447 -0.007603  0
0.102554 -0.00244814  0
0.103794 0.0030995  0
0.102608 0.00884515  0
0.0989445 0.0145475  0
0.0928705 0.0199438  0
0.0845796 0.0247841  0
0.074373 0.0288662  0
0.0626251 0.0320582  0
0.0497425 0.0342965  0
0.0361347 0.0355586  0
0.0222039 0.0358346  0
0.00835126 0.0351099  0
-0.00501056 0.0333606  0
-0.0174429 0.0305683  0
-0.0284881 0.0267593  0
-0.0377075 0.0220435  0
-0.0447283 0.0166149  0
-0.0492855 0.0107296  0
-0.0512455 0.00467036  0
-0.0506088 -0.00128642  0
-0.0474987 -0.00689427  0
-0.0421432 -0.0119389  0
-0.034864 -0.0162019  0
-0.0260937 -0.0193563  0
-0.0164491 -0.0207701  0
-0.00687519 -0.0193209  0
0.00121835 -0.0136333  0
0.00611574 -0.00333981  0
0.00653436 0.00916254  0
0.002762 0.0182393  0
0.00678463 -0.0408496  0
0.0202329 -0.0403212  0
0.0334255 -0.0392433  0
0.0462757 -0.0375788  0
0.0586256 -0.0352692  0
0.0702898 -0.0322365  0
0.0810437 -0.0283939  0
0.0906184 -0.023663  0
0.0987025 -0.0179983  0
0.104957 -0.0114141  0
0.109043 -0.00400721  0
0.110659 0.00402782  0
0.109585 0.0124  0
0.105728 0.0207377  0
0.0991493 0.0286293  0
0.0900789 0.0356832  0
0.0788839 0.041592  0
0.0660149 0.0461728  0
0.0519412 0.0493618  0
0.0371079 0.0511585  0
0.0219291 0.0515689  0
0.00680598 0.0505764  0
-0.00784263 0.0481303  0
-0.0215399 0.0441547  0
-0.0337502 0.0386557  0
-0.0439399 0.0317842  0
-0.0516537 0.0238374  0
-0.0565758 0.015216  0
-0.0585627 0.00636108  0
-0.0576424 -0.00230306  0
-0.053993 -0.0104051  0
-0.0479156 -0.0176283  0
-0.0398146 -0.0236593  0
-0.030206 -0.028044  0
-0.0197788 -0.0299198  0
-0.00952361 -0.0277655  0
-0.00084969 -0.0197212  0
0.00457791 -0.00534183  0
0.00555622 0.0120027  0
0.00242197 0.0245407  0
0.00708093 -0.0534926  0
0.0211346 -0.0528413  0
0.0349664 -0.0515161  0
0.0485114 -0.0494713  0
0.0616382 -0.0466253  0
0.0741809 -0.0428607  0
0.0859185 -0.0380363  0
0.0965598 -0.0320131  0
0.105741 -0.0246913  0
0.113039 -0.016053  0
0.118008 -0.00620354  0
0.120232 0.00460319  0
0.119389 0.0159603  0
0.115316 0.0273262  0
0.108066 0.0380866  0
0.0979203 0.0476598  0
0.0853405 0.055608  0
0.0708858 0.0616986  0
0.0551163 0.0658976  0
0.0385294 0.0682618  0
0.0215594 0.0688338  0
0.00461219 0.0676018  0
-0.0118862 0.0644725  0
-0.0274001 0.0592448  0
-0.0412692 0.0518669  0
-0.0528185 0.0425347  0
-0.0614758 0.0316812  0
-0.0668582 0.0199011  0
-0.0688147 0.00784441  0
-0.0674187 -0.00387681  0
-0.0629312 -0.0147415  0
-0.0557589 -0.0243141  0
-0.0464241 -0.032181  0
-0.0355601 -0.037766  0
-0.0239599 -0.0399958  0
-0.0126883 -0.0369866  0
-0.00317452 -0.0264578  0
0.00295488 -0.0079321  0
0.00457558 0.0142241  0
0.00209075 0.0301684  0
0.00743312 -0.0667946  0
0.0222039 -0.0660384  0
0.0367899 -0.0645113  0
0.0511601 -0.0621673  0
0.0652289 -0.0589025  0
0.0788702 -0.054547  0
0.0918815 -0.0488798  0
0.103953 -0.0416652  0
0.114656 -0.0327067  0
0.123452 -0.0219164  0
0.129741 -0.00938451  0
0.132939 0.00457511  0
0.132569 0.019414  0
0.128364 0.0343632  0
0.120351 0.0485237  0
0.108872 0.0610592  0
0.0944918 0.0713807  0
0.0778876 0.0791971  0
0.0597369 0.0845322  0
0.0406209 0.0875434  0
0.0210358 0.088321  0
0.00143525 0.0868768  0
-0.0177105 0.0830566  0
-0.0357513 0.0764309  0
-0.0518408 0.0668557  0
-0.065129 0.0546004  0
-0.0749183 0.0402799  0
-0.0807614 0.0247468  0
-0.0825163 0.00892952  0
-0.0803297 -0.00632405  0
-0.0745774 -0.0203128  0
-0.06581 -0.0324605  0
-0.0547094 -0.0422471  0
-0.042067 -0.0489826  0
-0.0288186 -0.0514036  0
-0.0161392 -0.047305  0
-0.00551044 -0.0340569  0
0.00146309 -0.0112108  0
0.00374059 0.0158297  0
0.00182081 0.0351924  0
0.00782894 -0.0808558  0
0.023398 -0.0800062  0
0.0388107 -0.078323  0
0.054087 -0.0757843  0
0.0692188 -0.07227  0
0.0841561 -0.0675437  0
0.0987449 -0.0612703  0
0.112674 -0.0530646  0
0.125443 -0.0425688  0
0.136364 -0.0295624  0
0.144629 -0.0140843  0
0.14942 0.00349277  0
0.150038 0.0224537  0
0.146046 0.0417268  0
0.137416 0.0600088  0
0.124528 0.0761463  0
0.107979 0.0894294  0
0.0884924 0.0994457  0
0.0668781 0.106256  0
0.0438718 0.11015  0
0.0201624 0.111217  0
-0.00359703 0.109549  0
-0.0267113 0.104853  0
-0.04826 0.0964334  0
-0.0671579 0.0840509  0
-0.0824127 0.0681593  0
-0.0932871 0.0495966  0
-0.0993301 0.029529  0
-0.100461 0.00924679  0
-0.0969411 -0.0101334  0
-0.0892884 -0.0276928  0
-0.078239 -0.0426807  0
-0.0646841 -0.054465  0
-0.0496191 -0.0622539  0
-0.034163 -0.0646181  0
-0.0196394 -0.0590742  0
-0.00761748 -0.0427188  0
0.000304394 -0.0152245  0
0.00318375 0.0169064  0
0.00165796 0.0397809  0
0.00825025 -0.0957459  0
0.0246495 -0.0947884  0
0.0408853 -0.0929762  0
0.0570536 -0.0903641  0
0.0732765 -0.0868351  0
0.0896391 -0.0820704  0
0.106091 -0.0755779  0
0.122364 -0.0667543  0
0.137904 -0.054984  0
0.151848 -0.0398105  0
0.163116 -0.0211678  0
0.170595 0.000507144  0
0.173272 0.0243435  0
0.170404 0.0488956  0
0.161803 0.07227  0
0.147833 0.0929423  0
0.128897 0.110319  0
0.10551 0.12363  0
0.0786012 0.132795  0
0.0491866 0.138232  0
0.0184359 0.139797  0
-0.0123522 0.13772  0
-0.0417489 0.131397  0
-0.0682243 0.120118  0
-0.0904252 0.10367  0
-0.107449 0.0830244  0
-0.118825 0.0591873  0
-0.124256 0.033619  0
-0.123846 0.00808548  0
-0.118043 -0.0160861  0
-0.107515 -0.0377117  0
-0.0932247 -0.0557905  0
-0.0763392 -0.0695838  0
-0.0580984 -0.0782283  0
-0.0398279 -0.080157  0
-0.023018 -0.0726549  0
-0.00934135 -0.0526225  0
-0.000398761 -0.0199709  0
0.00298173 0.0176074  0
0.00162788 0.0441739  0
0.00865369 -0.111473  0
0.0258042 -0.11033  0
0.0427003 -0.108359  0
0.0595545 -0.105798  0
0.0767003 -0.102566  0
0.094447 -0.0982469  0
0.11294 -0.0921465  0
0.132053 -0.0833733  0
0.151262 -0.0709166  0
0.169529 -0.0538935  0
0.185424 -0.032054  0
0.197519 -0.0059872  0
0.204341 0.0235321  0
0.204408 0.0546993  0
0.197124 0.0845436  0
0.18292 0.111036  0
0.161647 0.134628  0
0.133025 0.153524  0
0.0979584 0.167071  0
0.0578435 0.175682  0
0.0148435 0.178295  0
-0.0280322 0.175082  0
-0.0674454 0.165042  0
-0.100754 0.148455  0
-0.126438 0.125415  0
-0.144274 0.0983382  0
-0.154745 0.0679195  0
-0.157893 0.0356659  0
-0.154245 0.00418225  0
-0.144619 -0.0254092  0
-0.129745 -0.0515878  0
-0.110881 -0.0728639  0
-0.0896023 -0.0884682  0
-0.0674121 -0.0975678  0
-0.0457931 -0.0984991  0
-0.0263445 -0.0883629  0
-0.0107955 -0.0639312  0
-0.000745937 -0.0254453  0
0.00307382 0.0180906  0
0.00171056 0.0486167  0
0.00890567 -0.127867  0
0.026427 -0.126342  0
0.0434596 -0.124076  0
0.0604019 -0.121679  0
0.0779111 -0.119143  0
0.0966341 -0.115944  0
0.117051 -0.111165  0
0.139376 -0.103602  0
0.16334 -0.0916702  0
0.187729 -0.0736063  0
0.210545 -0.0488652  0
0.230229 -0.0187691  0
0.244693 0.0172136  0
0.250377 0.0574515  0
0.245731 0.0959067  0
0.232291 0.129503  0
0.209087 0.162824  0
0.174077 0.191147  0
0.127555 0.213225  0
0.070781 0.228607  0
0.00770503 0.233635  0
-0.0545487 0.227061  0
-0.108519 0.208637  0
-0.150605 0.182445  0
-0.179387 0.148082  0
-0.196118 0.112432  0
-0.203612 0.073984  0
-0.202002 0.0333326  0
-0.192665 -0.00427393  0
-0.17734 -0.039709  0
-0.156271 -0.071033  0
-0.131094 -0.0952616  0
-0.104251 -0.111991  0
-0.0775145 -0.120771  0
-0.052313 -0.119914  0
-0.0301281 -0.106379  0
-0.0125677 -0.0768214  0
-0.00120768 -0.031761  0
0.00319378 0.0183888  0
0.00182505 0.053254  0
0.00863612 -0.144257  0
0.0253869 -0.141975  0
0.0412641 -0.139158  0
0.0569848 -0.137067  0
0.0736508 -0.135739  0
0.0923577 -0.134589  0
0.114089 -0.132481  0
0.139697 -0.128034  0
0.169622 -0.118943  0
0.202197 -0.101115  0
0.233919 -0.0737147  0
0.264377 -0.0418824  0
0.291027 0.00138982  0
0.304154 0.0566424  0
0.301079 0.106614  0
0.28882 0.146675  0
0.264425 0.195433  0
0.223358 0.236798  0
0.16485 0.274787  0
0.0863869 0.304465  0
-0.00511335 0.314537  0
-0.0929011 0.298385  0
-0.162946 0.263513  0
-0.215273 0.224168  0
-0.246771 0.168824  0
-0.259125 0.12296  0
-0.261829 0.07584  0
-0.253152 0.0233772  0
-0.236062 -0.0185575  0
-0.214968 -0.0596555  0
-0.186837 -0.0980948  0
-0.153417 -0.124604  0
-0.119822 -0.140891  0
-0.0882596 -0.147974  0
-0.0597029 -0.144272  0
-0.0350619 -0.126648  0
-0.0154669 -0.0915087  0
-0.00240187 -0.0393003  0
0.00305304 0.0182702  0
0.00190729 0.0580854  0
0.00704561 -0.158798  0
0.0203439 -0.155248  0
0.0324622 -0.151693  0
0.0447236 -0.150328  0
0.0587041 -0.15094  0
0.0760142 -0.153222  0
0.0982207 -0.155605  0
0.126797 -0.156915  0
0.163916 -0.154928  0
0.205542 -0.137156  0
0.244196 -0.105877  0
0.287057 -0.080867  0
0.328895 -0.0259446  0
0.343803 0.0581115  0
0.334393 0.1198  0
0.326094 0.156219  0
0.301063 0.237488  0
0.253351 0.285698  0
0.192052 0.347873  0
0.0961062 0.407967  0
-0.0241849 0.425006  0
-0.130874 0.384573  0
-0.20649 0.325166  0
-0.275309 0.285841  0
-0.313575 0.179093  0
-0.312461 0.12611  0
-0.309375 0.074487  0
-0.293903 0.00276184  0
-0.270919 -0.0358355  0
-0.252002 -0.0802048  0
-0.220823 -0.134671  0
-0.177452 -0.162631  0
-0.135836 -0.175886  0
-0.0989994 -0.179186  0
-0.0671891 -0.171234  0
-0.0403359 -0.148987  0
-0.0187474 -0.10816  0
-0.0037019 -0.0485663  0
0.00319024 0.0173824  0
0.00220653 0.0632957  0
0.00288841 -0.167603  0
0.00783021 -0.162462  0
0.0121869 -0.158771  0
0.0185126 -0.159656  0
0.0283094 -0.16321  0
0.0438468 -0.171623  0
0.0665328 -0.179922  0
0.0966787 -0.189147  0
0.14227 -0.203236  0
0.187465 -0.1735  0
0.22032 -0.138875  0
0.278659 -0.146903  0
0.324859 -0.0463238  0
0.314777 0.0747468  0
0.289707 0.138728  0
0.312887 0.124037  0
0.285772 0.323443  0
0.199867 0.33499  0
0.152531 0.409392  0
0.0724462 0.524654  0
-0.0419041 0.545135  0
-0.122728 0.45413  0
-0.167593 0.378262  0
-0.292686 0.42883  0
-0.361644 0.145501  0
-0.314328 0.113445  0
-0.302087 0.0739981  0
-0.286869 -0.0252666  0
-0.271003 -0.0444835  0
-0.277922 -0.0813785  0
-0.257135 -0.183286  0
-0.202495 -0.209846  0
-0.152499 -0.218099  0
-0.10838 -0.215741  0
-0.0710174 -0.201664  0
-0.0402894 -0.17395  0
-0.0163078 -0.126579  0
-0.000459091 -0.0588532  0
0.00628392 0.0162226  0
0.00365752 0.0702537  0
-0.00502162 -0.164352  0
-0.0149465 -0.158522  0
-0.022055 -0.15778  0
-0.02166 -0.165192  0
-0.0154523 -0.171506  0
0.00126165 -0.193407  0
0.0243622 -0.201756  0
0.0491224 -0.220052  0
0.103847 -0.27048  0
0.133694 -0.179675  0
0.135354 -0.166134  0
0.147125 -0.188672  0
0.168471 -0.119443  0
0.214757 0.0443594  0
0.250551 0.120064  0
0.261404 0.0903023  0
0.187558 0.372441  0
0.113712 0.360047  0
0.103539 0.442933  0
0.0646695 0.611153  0
0.00683974 0.631901  0
-0.0315935 0.487707  0
-0.046376 0.405418  0
-0.14046 0.621937  0
-0.230186 0.112164  0
-0.22371 0.0940737  0
-0.205711 0.0642141  0
-0.200156 -0.035171  0
-0.218658 -0.0308579  0
-0.277301 -0.0283562  0
-0.282147 -0.250618  0
-0.21944 -0.257682  0
-0.16931 -0.268208  0
-0.114492 -0.262386  0
-0.0642395 -0.240451  0
-0.0230334 -0.204914  0
0.00553422 -0.14598  0
0.0169207 -0.0645028  0
0.0162366 0.0179968  0
0.00726149 0.0822643  0
-0.0165947 -0.141627  0
-0.0460512 -0.13967  0
-0.0639239 -0.149479  0
-0.0638322 -0.17181  0
-0.0602918 -0.172467  0
-0.0372572 -0.230027  0
-0.0201973 -0.203672  0
-0.0181877 -0.243823  0
-0.00864115 -0.309898  0
0.0616419 -0.239731  0
0.144908 -0.0889526  0
0.152509 -0.0943362  0
0.0735625 -0.0943362  0
0 0  0
0.130702 0.0451512  0
0.261404 0.0451512  0
0.187558 0.180023  0
0.0671823 0.180023  0
-0.0363627 0.226553  0
-0.0392948 0.319925  0
0.0782612 0.330517  0
0.0934731 0.248503  0
-0.153142 0.205451  0
0.00834566 0.355269  0
0.0818463 0.0566444  0
-0.193973 0.0432364  0
-0.14731 0.0269079  0
-0.164648 -0.0151638  0
-0.242136 -0.00859939  0
-0.226749 -0.136792  0
-0.187355 -0.290211  0
-0.19505 -0.272012  0
-0.175284 -0.32214  0
-0.111576 -0.3248  0
-0.0412266 -0.296459  0
0.0198367 -0.248995  0
0.0577337 -0.166184  0
0.0541731 -0.0499456  0
0.0309161 0.0295597  0
0.0110781 0.101693  0
-0.0288456 -0.0950873  0
-0.0739188 -0.109494  0
-0.0945619 -0.138969  0
-0.0916141 -0.183735  0
-0.0984139 -0.1562  0
-0.112577 -0.254083  0
-0.0415384 -0.225109  0
0.038694 -0.126685  0
0.0196233 -0.154949  0
-0.00432058 -0.154949  0
0 0  0
0 0  0
0 0  0
0 0  0
0 0  0
0 0  0
0 0  0
0 0  0
0 0  0
0 0  0
0 0  0
0 0  0
0 0  0
0 0  0
0 0  0
0 0  0
0 0  0
0 0  0
0 0  0
-0.0936777 -0.145105  0
-0.200302 -0.145105  0
-0.162717 -0.306687  0
-0.112185 -0.349056  0
-0.0782057 -0.393936  0
-0.00396662 -0.369733  0
0.0680074 -0.306582  0
0.113669 -0.189981  0
0.0888062 0.00444955  0
0.0331119 0.0562902  0
0.00811423 0.121972  0
-0.0325184 -0.03263  0
-0.0712939 -0.0859246  0
-0.0775511 -0.134013  0
-0.105431 -0.162555  0
-0.0669216 -0.0710186  0
-0.0565543 -0.127041  0
-0.0562886 -0.127041  0
0 0  0
0 0  0
0 0  0
0 0  0
0 0  0
0 0  0
0 0  0
0 0  0
0 0  0
0 0  0
0 0  0
0 0  0
0 0  0
0 0  0
0 0  0
0 0  0
0 0  0
0 0  0
0 0  0
0 0  0
0 0  0
0 0  0
0 0  0
0 0  0
-0.0560926 -0.174528  0
-0.0513729 -0.388213  0
0.00943932 -0.427371  0
0.0297484 -0.429757  0
0.0591638 -0.346859  0
0.0659334 -0.201048  0
0.0476875 0.0597125  0
0.0153613 0.0901337  0
-0.000527909 0.130102  0
-0.00558951 0.00602312  0
-0.011179 -0.0791247  0
-0.0443651 -0.106569  0
-0.0387755 -0.0670064  0
0 0  0
0 0  0
0 0  0
0 0  0
0 0  0
0 0  0
0 0  0
0 0  0
0 0  0
0 0  0
0 0  0
0 0  0
0 0  0
0 0  0
0 0  0
0 0  0
0 0  0
0 0  0
0 0  0
0 0  0
0 0  0
0 0  0
0 0  0
0 0  0
0 0  0
0 0  0
0 0  0
0 0  0
0.00471966 -0.213685  0
0.0207871 -0.213685  0
-0.00595434 -0.225033  0
-0.0665137 -0.177983  0
-0.14986 -0.0993557  0
-0.104944 0.0378108  0
-0.0116148 0.0532754  0
-0.0120394 0.0647869  0
0.0397792 0.00580632  0
0.0341897 -0.0395624  0
-0.00558951 -0.0395624  0
0 0  0
0 0  0
0 0  0
0 0  0
0 0  0
0 0  0
0 0  0
0 0  0
0 0  0
0 0  0
0 0  0
0 0  0
0 0  0
0 0  0
0 0  0
0 0  0
0 0  0
0 0  0
0 0  0
0 0  0
0 0  0
0 0  0
0 0  0
0 0  0
0 0  0
0 0  0
0 0  0
0 0  0
0 0  0
0 0  0
0 0  0
0 0  0
0 0  0
0 0  0
0 0  0
0 0  0
0 0  0
0 0  0
0 0  0
0 0  0
0 0  0
0 0  0
0 0  0
0 0  0
0 0  0
0 0  0
0 0  0
0 0  0
0 0  0
0 0  0
0 0  0
0 0  0
0 0  0
0 0  0
0 0  0
0 0  0
0 0  0
0 0  0
0 0  0
0 0  0
0 0  0
0 0  0
0 0  0
0 0  0
0 0  0
0 0  0
0 0  0
0 0  0
0 0  0
0 0  0
0 0  0
0 0  0
0 0  0
0 0  0
0 0  0
0 0  0
0 0  0
0 0  0
0 0  0
0 0  0
0 0  0
0 0  0
0 0  0
0 0  0
0 0  0
0 0  0
0 0  0
0 0  0
0 0  0
0 0  0
0 0  0
0 0  0
0 0  0
0 0  0
0 0  0
0 0  0
0 0  0
0 0  0
0 0  0
0 0  0
0 0  0
0 0  0
0 0  0
0 0  0
0 0  0
0 0  0
0 0  0
0 0  0
0 0  0
0 0  0
0 0  0
0 0  0
0 0  0
0 0  0
0 0  0
0 0  0
0 0  0
0 0  0
0 0  0
0 0  0
0 0  0
0 0  0
0 0  0
0 0  0
0 0  0
0 0  0
0 0  0
0 0  0
0 0  0
0 0  0
0 0  0
0 0  0
0 0  0
0 0  0
0 0  0
0 0  0
0 0  0
0 0  0
0 0  0
0 0  0
0 0  0
0 0  0
0 0  0
0 0  0
0 0  0
0 0  0
0 0  0
0 0  0
0 0  0
0 0  0
0 0  0
0 0  0
0 0  0
0 0  0
0 0  0
0 0  0
0 0  0
0 0  0
0 0  0
0 0  0
0 0  0
0 0  0
0 0  0
0 0  0
0 0  0
0 0  0
0 0  0
0 0  0
0 0  0
0 0  0
0 0  0
0 0  0
0 0  0
0 0  0
0 0  0
0 0  0
0 0  0
0 0  0
0 0  0
0 0  0
0 0  0
0 0  0
0 0  0
0 0  0
0 0  0
0 0  0
0 0  0
0 0  0
0 0  0
0 0  0
0 0  0
0 0  0
0 0  0
0 0  0
0 0  0
0 0  0
0 0  0
0 0  0
0 0  0
0 0  0
0 0  0
0 0  0
0 0  0
0 0  0
0 0  0
0 0  0
0 0  0
0 0  0
0 0  0
0 0  0
0 0  0
0 0  0
0 0  0
0 0  0
0 0  0
0 0  0
0 0  0
0 0  0
0 0  0
0 0  0
0 0  0
0 0  0
0 0  0
0 0  0
0 0  0
0 0  0
0 0  0
0 0  0
0 0  0
0 0  0
0 0  0
0 0  0
0 0  0
0 0  0
0 0  0
0 0  0
0 0  0
0 0  0
0 0  0
0 0  0
0 0  0
0 0  0
0 0  0
0 0  0
0 0  0
0 0  0
0 0  0
0 0  0
0 0  0
0 0  0
0 0  0
0 0  0
0 0  0
0 0  0
0 0  0
0 0  0
0 0  0
0 0  0
0 0  0
0 0  0
0 0  0
0 0  0
0 0  0
0 0  0
0 0  0
0 0  0
0 0  0
0 0  0
0 0  0
0 0  0
0 0  0
0 0  0
0 0  0
0 0  0
0 0  0
0 0  0
0 0  0
0 0  0
0 0  0
0 0  0
0 0  0
0 0  0
0 0  0
0 0  0
0 0  0
0 0  0
0 0  0
0 0  0
0 0  0
0 0  0
0 0  0
0 0  0
0 0  0
0 0  0
0 0  0
0 0  0
0 0  0
0 0  0
0 0  0
0 0  0
0 0  0
0 0  0
0 0  0
0 0  0
0 0  0
0 0  0
0 0  0
0 0  0
0 0  0
0 0  0
0 0  0
0 0  0
0 0  0
0 0  0
0 0  0
0 0  0
0 0  0
0 0  0
0 0  0
0 0  0
0 0  0
0 0  0
0 0  0
0 0  0
0 0  0
0 0  0
0 0  0
0 0  0
0 0  0
0 0  0
0 0  0
0 0  0
0 0  0
0 0  0
0 0  0
0 0  0
0 0  0
0 0  0
0 0  0
0 0  0
0 0  0
0 0  0
0 0  0
0 0  0
0 0  0
0 0  0
0 0  0
0 0  0
0 0  0
0 0  0
0 0  0
0 0  0
0 0  0
0 0  0
0 0  0
0 0  0
0 0  0
0 0  0
0 0  0
0 0  0
0 0  0
0 0  0
0 0  0
0 0  0
0 0  0
0 0  0
0 0  0
0 0  0
0 0  0
0 0  0
0 0  0
0 0  0
0 0  0
0 0  0
0 0  0
0 0  0
0 0  0
0 0  0
0 0  0
0 0  0
0 0  0
0 0  0
0 0  0
0 0  0
0 0  0
0 0  0
0 0  0
0 0  0
0 0  0
0 0  0
0 0  0
0 0  0
0 0  0
0 0  0
0 0  0
0 0  0
0 0  0
0 0  0
0 0  0
0 0  0
0 0  0
0 0  0
0 0  0
0 0  0
0 0  0
0 0  0
0 0  0
0 0  0
0 0  0
0 0  0
0 0  0
0 0  0
0 0  0
0 0  0
0 0  0
0 0  0
0 0  0
0 0  0
0 0  0
0 0  0
0 0  0
0 0  0
0 0  0
0 0  0
0 0  0
0 0  0
0 0  0
0 0  0
0 0  0
0 0  0
0 0  0
0 0  0
0 0  0
0 0  0
0 0  0
0 0  0
0 0  0
0 0  0
0 0  0
0 0  0
0 0  0
0 0  0
0 0  0
0 0  0
0 0  0
0 0  0
0 0  0
0 0  0
0 0  0
0 0  0
0 0  0
0 0  0
0 0  0
0 0  0
0 0  0
0 0  0
0 0  0
0 0  0
0 0  0
0 0  0
0 0  0
0 0  0
0 0  0
0 0  0
0 0  0
0 0  0
0 0  0
0 0  0
0 0  0
0 0  0
0 0  0
0 0  0
0 0  0
0 0  0
0 0  0
0 0  0
0 0  0

SCALARS pressure double 1
LOOKUP_TABLE default
3.42013
3.418
3.41361
3.40713
3.39883
3.38906
3.37824
3.36684
3.35537
3.34434
3.33425
3.32555
3.31861
3.31372
3.31102
3.31056
3.31226
3.31598
3.32149
3.32858
3.337
3.34657
3.35714
3.36857
3.38086
3.39399
3.4079
3.42252
3.43771
3.45328
3.46896
3.48442
3.49929
3.5132
3.52577
3.53669
3.54571
3.55268
3.55744
3.55989
3.2164
3.21417
3.20959
3.20284
3.19419
3.18402
3.17274
3.16086
3.1489
3.13739
3.12685
3.11776
3.11051
3.10541
3.10262
3.10217
3.10396
3.10783
3.11353
3.12081
3.12941
3.13913
3.14982
3.16134
3.17373
3.18695
3.20099
3.21578
3.23118
3.24702
3.263
3.27879
3.29401
3.30825
3.32113
3.33232
3.34157
3.34872
3.35361
3.35612
3.00885
3.00643
3.00148
2.99419
2.98485
2.97386
2.96168
2.94883
2.93587
2.92337
2.91193
2.90205
2.8942
2.8887
2.88573
2.88531
2.88731
2.89152
2.89762
2.90531
2.91428
2.92432
2.93524
2.94695
2.9595
2.97291
2.98719
3.00231
3.01815
3.03452
3.05113
3.0676
3.08352
3.09844
3.11197
3.12372
3.13344
3.14095
3.14609
3.14873
2.79765
2.79493
2.7894
2.78128
2.77089
2.75865
2.74507
2.73071
2.7162
2.70218
2.68931
2.67821
2.6694
2.66329
2.66007
2.65974
2.66213
2.66692
2.6737
2.68205
2.69162
2.70213
2.71338
2.72533
2.7381
2.75175
2.76636
2.78195
2.79845
2.81565
2.83323
2.85077
2.8678
2.88381
2.89833
2.91097
2.92143
2.9295
2.93502
2.93785
2.58303
2.5799
2.57359
2.56432
2.55246
2.53849
2.52296
2.5065
2.48981
2.47363
2.45874
2.44588
2.43571
2.42874
2.42522
2.42511
2.42815
2.43387
2.44169
2.45106
2.46147
2.47262
2.48425
2.49646
2.50942
2.5233
2.53828
2.55447
2.57183
2.59018
2.60913
2.6282
2.64681
2.66437
2.68033
2.69421
2.7057
2.71455
2.7206
2.72369
2.36537
2.3617
2.35434
2.34357
2.32979
2.31354
2.29544
2.27619
2.25659
2.2375
2.21984
2.20456
2.19252
2.1844
2.18054
2.18086
2.18495
2.19212
2.20153
2.21236
2.22395
2.23588
2.24788
2.26025
2.27327
2.28726
2.30258
2.31944
2.33789
2.35775
2.37856
2.39972
2.4205
2.44018
2.45808
2.47364
2.48649
2.49637
2.5031
2.50653
2.14514
2.14079
2.13209
2.11939
2.10317
2.08403
2.06264
2.03981
2.01642
1.99348
1.97211
1.95352
1.9389
1.92926
1.92505
1.92616
1.93192
1.94134
1.95314
1.96609
1.97923
1.99202
2.00429
2.01658
2.02936
2.04321
2.0587
2.07625
2.09602
2.11782
2.14111
2.16509
2.18881
2.21133
2.23179
2.24953
2.26412
2.2753
2.28288
2.28672
1.92298
1.91775
1.90737
1.89225
1.87298
1.85023
1.82476
1.79742
1.76918
1.74122
1.7149
1.69176
1.6735
1.66179
1.6573
1.65976
1.66815
1.68104
1.69643
1.71241
1.72761
1.74122
1.75344
1.7652
1.7772
1.79042
1.80576
1.82391
1.84524
1.86955
1.89616
1.92396
1.95164
1.97792
2.00172
2.02225
2.03901
2.05176
2.06035
2.06468
1.69969
1.69336
1.68085
1.66274
1.63971
1.61255
1.58206
1.54917
1.51484
1.48036
1.44739
1.41787
1.39426
1.37968
1.37504
1.37977
1.39212
1.41041
1.43123
1.45156
1.46941
1.48348
1.49507
1.5056
1.51595
1.52772
1.54237
1.56092
1.58405
1.61163
1.6428
1.67584
1.70889
1.74018
1.7683
1.79231
1.8117
1.82627
1.83601
1.84088
1.47633
1.46857
1.45339
1.43156
1.40397
1.37149
1.33499
1.2954
1.25352
1.21061
1.16879
1.12998
1.09788
1.07924
1.07486
1.08347
1.10122
1.1281
1.15708
1.18348
1.20449
1.21807
1.22817
1.23679
1.24417
1.25326
1.2664
1.28494
1.31006
1.34198
1.37968
1.42012
1.46052
1.49848
1.53217
1.56047
1.58293
1.59953
1.61045
1.61586
1.25428
1.24465
1.22602
1.19958
1.16651
1.1277
1.0841
1.03674
0.98567
0.931851
0.878813
0.826364
0.778336
0.754671
0.751759
0.767957
0.790413
0.832215
0.873004
0.907097
0.931005
0.942184
0.950202
0.957249
0.959681
0.964307
0.974822
0.992729
1.01959
1.05738
1.10498
1.15606
1.20671
1.25362
1.2944
1.32786
1.35374
1.37238
1.38433
1.39015
1.03545
1.02328
1.00005
0.967751
0.928227
0.881923
0.829907
0.774291
0.712418
0.6437
0.579457
0.508217
0.422617
0.39812
0.399087
0.435577
0.447808
0.523723
0.578763
0.619584
0.643342
0.649717
0.657027
0.665954
0.659827
0.657945
0.664426
0.680625
0.708141
0.752773
0.816463
0.883019
0.94811
1.00705
1.05673
1.09613
1.12551
1.14582
1.15829
1.16415
0.822586
0.806728
0.776942
0.736823
0.69016
0.634915
0.571888
0.509966
0.436486
0.342434
0.278972
0.192464
-0.00404882
0.00764371
0.00411865
0.11854
0.0281687
0.225338
0.283171
0.319242
0.334869
0.335156
0.346431
0.359231
0.339606
0.33371
0.334902
0.347621
0.371594
0.418364
0.512413
0.600666
0.686332
0.761421
0.821792
0.867333
0.899635
0.920692
0.932583
0.937831
0.619538
0.598127
0.558085
0.506081
0.453862
0.388064
0.304729
0.247784
0.168555
0.0040466
-0.00596002
-0.0185198
0
0
0
0
0
0.0560275
0.00424074
0.0141322
0.0143002
0.00449783
0.0014264
0.0463019
0.000298804
-0.00377464
-0.00531492
0.00236519
0.00644741
0.0217422
0.197703
0.309355
0.424683
0.521092
0.593009
0.643176
0.676623
0.696935
0.706439
0.710261
0.43134
0.401726
0.344481
0.268746
0.223152
0.150026
0.00272957
-0.00467876
-0.0219227
0
0
0
0
0
0
0
0
0
0
0
0
0
0
0
0
0
0
0
0
0
-0.0491764
0.00316194
0.170361
0.293053
0.373988
0.423847
0.454472
0.471873
0.477737
0.479476
0.263427
0.224947
0.141389
-0.00620848
0.00843529
-0.0217605
0
0
0
0
0
0
0
0
0
0
0
0
0
0
0
0
0
0
0
0
0
0
0
0
0
0
-0.0473543
0.0910602
0.169362
0.207374
0.226421
0.239299
0.244616
0.243279
0.120462
0.0851893
-0.00389026
0
0
0
0
0
0
0
0
0
0
0
0
0
0
0
0
0
0
0
0
0
0
0
0
0
0
0
0
0
0
-0.0614007
-0.0103154
-0.00469053
0.00128645
0.00862058
0.00836981
-0.000452587
0.00296867
-0.00270154
0
0
0
0
0
0
0
0
0
0
0
0
0
0
0
0
0
0
0
0
0
0
0
0
0
0
0
0
0
0
0
0
0
0
0
0
0
0
0
0
0
0
0
0
0
0
0
0
0
0
0
0
0
0
0
0
0
0
0
0
0
0
0
0
0
0
0
0
0
0
0
0
0
0
0
0
0
0
0
0
0
0
0
0
0
0
0
0
0
0
0
0
0
0
0
0
0
0
0
0
0
0
0
0
0
0
0
0
0
0
0
0
0
0
0
0
0
0
0
0
0
0
0
0
0
0
0
0
0
0
0
0
0
0
0
0
0
0
0
0
0
0
0
0
0
0
0
0
0
0
0
0
0
0
0
0
0
0
0
0
0
0
0
0
0
0
0
0
0
0
0
0
0
0
0
0
0
0
0
0
0
0
0
0
0
0
0
0
0
0
0
0
0
0
0
0
0
0
0
0
0
0
0
0
0
0
0
0
0
0
0
0
0
0
0
0
0
0
0
0
0
0
0
0
0
0
0
0
0
0
0
0
0
0
0
0
0
0
0
0
0
0
0
0
0
0
0
0
0
0
0
0
0
0
0
0
0
0
0
0
0
0
0
0
0
0
0
0
0
0
0
0
0
0
0
0
0
0
0
0
0
0
0
0
0
0
0
0
0
0
0
0
0
0
0
0
0
0
0
0
0
0
0
0
0
0
0
0
0
0
0
0
0
0
0
0
0
0
0
0
0
0
0
0
0
0
0
0
0
0
0
0
0
0
0
0
0
0
0
0
0
0
0
0
0
0
0
0
0
0
0
0
0
0
0
0
0
0
0
0
0
0
0
0
0
0
0
0
0
0
0
0
0
0
0
0
0
0
0
0
0
0
0
0
0
0
0
0
0
0
0
0
0
0
0
0
0
0
0
0
0
0
0
0
0
0
0
0
0
0
0
0
0
0
0
0
0
0
0
0
0
0
0
0
0
0
0
0
0
0
0
0
0
0
0
0
0
0
0
0
0
0
0
0
0
0
0
0
0
0
0
0
0
0
0
0
0
0
0
0
0
0
0
0
0
0
0
0
0
0
0
0
0
0
0
0
0
0
0
0
0
0
0
0
0
0
0
0
0
0
0
0
0
0
0
0
0
0
0
0
0
0
0
0
0
0
0
0
0
0
0
0
0
0
0
0
0
0
SCALARS rhs double 1
LOOKUP_TABLE default
-5.00291
-5.07372
-5.07643
-5.07849
-5.0803
-5.08191
-5.08332
-5.08456
-5.08572
-5.0869
-5.08821
-5.08969
-5.09144
-5.09338
-5.09545
-5.09753
-5.09946
-5.1011
-5.10231
-5.10298
-5.10308
-5.10284
-5.10285
-5.09968
-5.09779
-5.09581
-5.09393
-5.09234
-5.09115
-5.09045
-5.09022
-5.09039
-5.09077
-5.09108
-5.09087
-5.08933
-5.08759
-5.08604
-5.08596
-5.08748
-0.0736007
-0.139988
-0.140695
-0.140808
-0.140752
-0.140516
-0.140144
-0.139682
-0.139209
-0.13883
-0.138664
-0.138656
-0.139184
-0.140135
-0.141422
-0.142911
-0.144419
-0.145762
-0.146783
-0.14737
-0.147457
-0.14742
-0.147405
-0.1444
-0.142715
-0.140987
-0.139438
-0.13826
-0.137573
-0.137572
-0.137895
-0.138519
-0.139277
-0.139882
-0.13992
-0.138722
-0.137202
-0.136023
-0.136201
-0.138034
-0.078871
-0.142231
-0.142937
-0.143055
-0.143034
-0.142845
-0.142526
-0.142131
-0.14171
-0.141378
-0.141257
-0.14117
-0.141689
-0.142669
-0.143979
-0.145474
-0.146968
-0.148279
-0.149263
-0.149828
-0.149919
-0.150238
-0.149944
-0.147018
-0.145356
-0.143621
-0.142044
-0.140824
-0.140091
-0.140197
-0.140456
-0.140981
-0.141594
-0.14198
-0.141718
-0.140282
-0.138336
-0.137056
-0.137202
-0.138996
-0.0844595
-0.144391
-0.145103
-0.145288
-0.145336
-0.145279
-0.145097
-0.144832
-0.144558
-0.144356
-0.144347
-0.144245
-0.144774
-0.145827
-0.147193
-0.148707
-0.150173
-0.15142
-0.152335
-0.152856
-0.152954
-0.153971
-0.153047
-0.150364
-0.148752
-0.147007
-0.145372
-0.144066
-0.143231
-0.143476
-0.143564
-0.143904
-0.144266
-0.144305
-0.143601
-0.141839
-0.13933
-0.137894
-0.137974
-0.13969
-0.0906841
-0.14685
-0.147558
-0.147833
-0.148035
-0.148165
-0.148222
-0.148218
-0.148204
-0.148262
-0.148504
-0.148495
-0.149049
-0.150267
-0.15174
-0.15328
-0.154691
-0.155821
-0.156613
-0.157063
-0.157172
-0.159402
-0.157334
-0.155154
-0.15364
-0.151882
-0.150138
-0.148662
-0.147624
-0.148071
-0.147792
-0.147805
-0.147761
-0.14729
-0.145985
-0.143635
-0.140934
-0.138831
-0.138961
-0.140539
-0.0974742
-0.149541
-0.150257
-0.150661
-0.15108
-0.15151
-0.151951
-0.15239
-0.152853
-0.153409
-0.154154
-0.154499
-0.155126
-0.15669
-0.158376
-0.159971
-0.16131
-0.16228
-0.162912
-0.163291
-0.163427
-0.167738
-0.163591
-0.162309
-0.160932
-0.159129
-0.157164
-0.155338
-0.154151
-0.154395
-0.153624
-0.153071
-0.152382
-0.151165
-0.14905
-0.145968
-0.142601
-0.140495
-0.140257
-0.141598
-0.104728
-0.152388
-0.153125
-0.153668
-0.154378
-0.155259
-0.156293
-0.15747
-0.158784
-0.16027
-0.162018
-0.163458
-0.164136
-0.166457
-0.168588
-0.170334
-0.171736
-0.172666
-0.173279
-0.173785
-0.174919
-0.180599
-0.174321
-0.173807
-0.172447
-0.170439
-0.16799
-0.165418
-0.163983
-0.16359
-0.161877
-0.160326
-0.158596
-0.156272
-0.153034
-0.148988
-0.144906
-0.142422
-0.141891
-0.142882
-0.112283
-0.155291
-0.155961
-0.156633
-0.157711
-0.159213
-0.161141
-0.163493
-0.166279
-0.169484
-0.173176
-0.177505
-0.178171
-0.182136
-0.18511
-0.187273
-0.189523
-0.191262
-0.19279
-0.194478
-0.199837
-0.203267
-0.194961
-0.193897
-0.191627
-0.188824
-0.185348
-0.181189
-0.179334
-0.177421
-0.173883
-0.170516
-0.167041
-0.163022
-0.158151
-0.152709
-0.14772
-0.144394
-0.143776
-0.144351
-0.11987
-0.157936
-0.158368
-0.159109
-0.160599
-0.162912
-0.166081
-0.170241
-0.175521
-0.181722
-0.188742
-0.199854
-0.20053
-0.207809
-0.211743
-0.214713
-0.220728
-0.226415
-0.232815
-0.240001
-0.258732
-0.250569
-0.235924
-0.230989
-0.2239
-0.218373
-0.213072
-0.205716
-0.204554
-0.198148
-0.191643
-0.184891
-0.178335
-0.171636
-0.164312
-0.15673
-0.150262
-0.146067
-0.14551
-0.145877
-0.126836
-0.159563
-0.159532
-0.160292
-0.162324
-0.165719
-0.170601
-0.177476
-0.186976
-0.197505
-0.207796
-0.225611
-0.241974
-0.246269
-0.247603
-0.250879
-0.268658
-0.285734
-0.311326
-0.340057
-0.398443
-0.34666
-0.311933
-0.29755
-0.273034
-0.259026
-0.252233
-0.23927
-0.238516
-0.226277
-0.217808
-0.204924
-0.19267
-0.181654
-0.170771
-0.160185
-0.151642
-0.14691
-0.146563
-0.147307
-0.131794
-0.158695
-0.158181
-0.159434
-0.162654
-0.168033
-0.175746
-0.18696
-0.204243
-0.215825
-0.220951
-0.254172
-0.297279
-0.282451
-0.262985
-0.266237
-0.312016
-0.340531
-0.421284
-0.53264
-0.672323
-0.493245
-0.403977
-0.408692
-0.328639
-0.287354
-0.284988
-0.272278
-0.250548
-0.252957
-0.256124
-0.232559
-0.20993
-0.192175
-0.17688
-0.163533
-0.153312
-0.148348
-0.147644
-0.148891
-0.133335
-0.153997
-0.153944
-0.157544
-0.163874
-0.174043
-0.186545
-0.204751
-0.239948
-0.218367
-0.205816
-0.30244
-0.250507
-0.215205