# vtk DataFile Version 4.0
Nusif Fluid VTK output
ASCII
DATASET STRUCTURED_POINTS
DIMENSIONS 40 30 1
ORIGIN 0 0 0 
SPACING 0.2 0.2 1
POINT_DATA 1200 

VECTORS velocity double
0.00385335 -0.00394384  0
0.0115783 -0.00393655  0
0.0193039 -0.00391801  0
0.0269734 -0.00387924  0
0.0345319 -0.00380664  0
0.0418952 -0.00368341  0
0.0489442 -0.00349174  0
0.0555244 -0.00321421  0
0.0614506 -0.00283507  0
0.0664369 -0.00243208  0
0.0703756 -0.00176185  0
0.0731052 -0.00107819  0
0.0743015 -0.000333778  0
0.0738878 0.000500348  0
0.071847 0.00133752  0
0.0681702 0.00212985  0
0.0629515 0.0028562  0
0.0563882 0.00347941  0
0.0487364 0.0039576  0
0.040297 0.00426647  0
0.0314168 0.00439457  0
0.0224706 0.00433525  0
0.0138372 0.00408817  0
0.00588057 0.00366294  0
-0.00106512 0.00307951  0
-0.00671328 0.00236761  0
-0.0108437 0.00156506  0
-0.0133184 0.000715802  0
-0.0140898 -0.000134813  0
-0.0131978 -0.000944859  0
-0.0107584 -0.0016803  0
-0.00694556 -0.00231633  0
-0.00197933 -0.00283182  0
0.00386143 -0.00318885  0
0.0101579 -0.00328592  0
0.016157 -0.00289053  0
0.0205058 -0.00163493  0
0.0212252 0.000739393  0
0.0164836 0.00382653  0
0.00628462 0.00619686  0
0.0038603 -0.0118122  0
0.0116037 -0.0117952  0
0.0193609 -0.01175  0
0.0270844 -0.0116474  0
0.0347274 -0.0114461  0
0.0422097 -0.0110947  0
0.0494129 -0.0105374  0
0.0561804 -0.00971804  0
0.0622319 -0.00866839  0
0.0675093 -0.00720684  0
0.0717287 -0.00538809  0
0.0745324 -0.00328866  0
0.0758792 -0.000959123  0
0.0755583 0.00154255  0
0.0734762 0.00408804  0
0.0696893 0.00653058  0
0.0643022 0.00874997  0
0.0574909 0.0106383  0
0.049524 0.0120962  0
0.0407337 0.0130455  0
0.0314845 0.0134375  0
0.0221624 0.013253  0
0.0131624 0.0124981  0
0.00486941 0.0112024  0
-0.00236258 0.00942299  0
-0.00822919 0.00724798  0
-0.0124963 0.00479412  0
-0.0150188 0.00219879  0
-0.0157511 -0.000395978  0
-0.0147452 -0.00286  0
-0.0121372 -0.00508824  0
-0.00812688 -0.00700497  0
-0.00296129 -0.00854657  0
0.00305435 -0.00960039  0
0.00947977 -0.00986482  0
0.0155521 -0.00865045  0
0.019931 -0.00486921  0
0.0206841 0.0022351  0
0.0160599 0.0114308  0
0.00611849 0.018467  0
0.00386953 -0.0196685  0
0.0116395 -0.0196572  0
0.0194513 -0.0196143  0
0.0272771 -0.0194895  0
0.0350845 -0.0192107  0
0.0428036 -0.0186877  0
0.0503206 -0.0178188  0
0.0573931 -0.0165619  0
0.0639613 -0.0147321  0
0.0697168 -0.012265  0
0.0742937 -0.00927209  0
0.0775344 -0.00570439  0
0.0791335 -0.00167897  0
0.0789372 0.00261444  0
0.0768405 0.00698786  0
0.0728422 0.0112115  0
0.0670735 0.0150466  0
0.0597493 0.0182958  0
0.0511546 0.0208054  0
0.0416432 0.022446  0
0.0316221 0.0231249  0
0.0215221 0.0228077  0
0.0117728 0.0215094  0
0.00279109 0.0192812  0
-0.00503145 0.0162165  0
-0.0113501 0.0124604  0
-0.0158972 0.00821742  0
-0.0185109 0.00373267  0
-0.0191507 -0.000737477  0
-0.0178955 -0.00495896  0
-0.0149249 -0.00874613  0
-0.0104914 -0.0119684  0
-0.00489721 -0.0145204  0
0.00150196 -0.0162192  0
0.00822607 -0.0165738  0
0.0144945 -0.0144605  0
0.018989 -0.00811082  0
0.0198533 0.00368099  0
0.0154454 0.0188386  0
0.00588562 0.0303817  0
0.00387028 -0.0275316  0
0.0116562 -0.027551  0
0.0195282 -0.0275596  0
0.0274881 -0.0274844  0
0.0355294 -0.0272186  0
0.0436018 -0.026624  0
0.0515389 -0.0255794  0
0.0592674 -0.023889  0
0.0665293 -0.0213321  0
0.0729702 -0.0179906  0
0.0782914 -0.0136877  0
0.0821298 -0.00854305  0
0.0842066 -0.00270028  0
0.0842427 0.00360797  0
0.0821073 0.0100488  0
0.0778048 0.0162654  0
0.0714629 0.0219152  0
0.0633295 0.0267057  0
0.0537366 0.0304071  0
0.0430835 0.0328277  0
0.0318373 0.0338285  0
0.0205005 0.0333636  0
0.00956635 0.0314625  0
-0.000496635 0.0281976  0
-0.00924282 0.0236923  0
-0.0162667 0.0181509  0
-0.0212451 0.0118778  0
-0.0239841 0.00525116  0
-0.0244488 -0.00132529  0
-0.0227633 -0.0074857  0
-0.0191813 -0.0129461  0
-0.0140423 -0.0175151  0
-0.00773405 -0.0210501  0
-0.000688264 -0.0233084  0
0.00655812 -0.0236291  0
0.0131984 -0.0204882  0
0.0179363 -0.0114902  0
0.0189957 0.00496197  0
0.0148445 0.0259419  0
0.00566403 0.0418438  0
0.00384826 -0.0353701  0
0.0116091 -0.0354555  0
0.0195171 -0.0355874  0
0.0276177 -0.0356692  0
0.0359446 -0.0355531  0
0.0444424 -0.0350612  0
0.0530553 -0.0339687  0
0.0616403 -0.0319361  0
0.0698602 -0.0288952  0
0.0773631 -0.0245736  0
0.083747 -0.0189706  0
0.0885371 -0.0120952  0
0.0913212 -0.00417739  0
0.0917665 0.00443523  0
0.0896529 0.0132871  0
0.0849613 0.0218445  0
0.0778476 0.029619  0
0.0685872 0.0362215  0
0.0575454 0.0413523  0
0.0451888 0.0447206  0
0.0321049 0.0460943  0
0.0189387 0.0454289  0
0.00628974 0.0428097  0
-0.0053088 0.0383428  0
-0.0153466 0.0321621  0
-0.0233418 0.0245306  0
-0.028896 0.0158607  0
-0.031762 0.00670386  0
-0.0319098 -0.00233401  0
-0.0295333 -0.0107076  0
-0.0250009 -0.018008  0
-0.018784 -0.0239789  0
-0.0113957 -0.0284525  0
-0.0033703 -0.0311471  0
0.00468128 -0.0312583  0
0.0119138 -0.0269019  0
0.0170416 -0.0151126  0
0.0183573 0.00603886  0
0.0144316 0.032771  0
0.00551673 0.0529391  0
0.00378254 -0.0431167  0
0.0114357 -0.0433139  0
0.0193129 -0.0436642  0
0.0275209 -0.0440503  0
0.0361359 -0.0442861  0
0.0451847 -0.0441213  0
0.0546625 -0.0431642  0
0.0643396 -0.0411202  0
0.0738917 -0.0376576  0
0.0828996 -0.0324927  0
0.0907901 -0.0254968  0
0.0969846 -0.0167253  0
0.100892 -0.00642177  0
0.102044 0.00492305  0
0.100147 0.0166479  0
0.0951279 0.0280193  0
0.0871118 0.0384047  0
0.0763535 0.0472918  0
0.0632199 0.0542927  0
0.048256 0.0589341  0
0.0323055 0.0607501  0
0.0163607 0.0597206  0
0.00124558 0.0561187  0
-0.0124247 0.0501389  0
-0.0241066 0.0419222  0
-0.0332828 0.0317782  0
-0.0394832 0.0202042  0
-0.0423833 0.00796337  0
-0.0419498 -0.00404274  0
-0.0384784 -0.015011  0
-0.0325113 -0.0243686  0
-0.0247142 -0.0317969  0
-0.0157725 -0.0371297  0
-0.00635192 -0.0400815  0
0.00284554 -0.0397387  0
0.0109226 -0.033897  0
0.0165862 -0.019075  0
0.0181778 0.00692772  0
0.0143659 0.0394533  0
0.00549923 0.0638717  0
0.00364742 -0.050658  0
0.0110552 -0.0510186  0
0.0187747 -0.0517037  0
0.026989 -0.0525886  0
0.0358661 -0.0534464  0
0.0455556 -0.0538973  0
0.0560457 -0.0534717  0
0.0671348 -0.0517335  0
0.078479 -0.0481154  0
0.0895354 -0.0422474  0
0.0995909 -0.0338605  0
0.107855 -0.0229839  0
0.113569 -0.00994772  0
0.116089 0.0046146  0
0.114986 0.0198013  0
0.110081 0.0346311  0
0.10128 0.0484473  0
0.0885841 0.0605433  0
0.0722515 0.070352  0
0.052925 0.0770085  0
0.0320383 0.0793543  0
0.0114745 0.077467  0
-0.0073749 0.0721802  0
-0.023766 0.0639825  0
-0.0372701 0.0531077  0
-0.0475563 0.0398978  0
-0.0542029 0.0247748  0
-0.0567803 0.00871307  0
-0.0552291 -0.0069352  0
-0.0499919 -0.0209859  0
-0.0418673 -0.0326446  0
-0.0317976 -0.0415474  0
-0.0206937 -0.0475852  0
-0.0093767 -0.0505243  0
0.00135191 -0.0493831  0
0.0105347 -0.041674  0
0.0168543 -0.0234428  0
0.0186824 0.00771403  0
0.0147884 0.0462109  0
0.00565857 0.0749485  0
0.00341228 -0.0578245  0
0.0103669 -0.0583938  0
0.017713 -0.0595411  0
0.0257419 -0.0611671  0
0.0347833 -0.0629883  0
0.0451053 -0.064504  0
0.0567597 -0.065144  0
0.0696199 -0.0641756  0
0.0833132 -0.0608642  0
0.0971687 -0.0545655  0
0.110314 -0.0448921  0
0.12175 -0.0318157  0
0.130535 -0.0157705  0
0.13585 0.00245197  0
0.136995 0.0217684  0
0.133493 0.0409213  0
0.124541 0.0597586  0
0.109316 0.0769998  0
0.0877341 0.0916589  0
0.0604771 0.102136  0
0.0302987 0.105142  0
0.00126867 0.101122  0
-0.0236895 0.0921822  0
-0.0435299 0.0800627  0
-0.0584882 0.0653408  0
-0.0690978 0.0484111  0
-0.0753479 0.0290079  0
-0.0766394 0.00819717  0
-0.0728452 -0.011917  0
-0.0646455 -0.0295941  0
-0.0532242 -0.0437363  0
-0.0399088 -0.0539957  0
-0.0258776 -0.0604277  0
-0.012102 -0.0629306  0
0.000537281 -0.0605012  0
0.0110389 -0.0503971  0
0.0180649 -0.0282223  0
0.0200141 0.00855895  0
0.0157727 0.0533441  0
0.00601602 0.0865443  0
0.00303727 -0.0643759  0
0.00923132 -0.0651647  0
0.0158496 -0.0668868  0
0.0233525 -0.0695352  0
0.0322987 -0.0727718  0
0.0431173 -0.0759848  0
0.0560288 -0.0783815  0
0.0710183 -0.0789436  0
0.0877237 -0.0766365  0
0.105415 -0.0704914  0
0.123064 -0.0599046  0
0.139527 -0.0448512  0
0.153787 -0.0259312  0
0.164786 -0.00384558  0
0.170998 0.0205654  0
0.171391 0.04509  0
0.16374 0.0720481  0
0.145222 0.0983101  0
0.114896 0.122113  0
0.0729663 0.140727  0
0.0249767 0.144579  0
-0.0199801 0.135532  0
-0.0552266 0.117836  0
-0.0789917 0.0978725  0
-0.0938014 0.0771572  0
-0.102767 0.0560268  0
-0.106871 0.0316025  0
-0.104896 0.0047735  0
-0.0966003 -0.0207303  0
-0.0832379 -0.0424908  0
-0.0666452 -0.0590026  0
-0.0487052 -0.0701348  0
-0.0308491 -0.0763267  0
-0.0140964 -0.0777114  0
0.000689585 -0.0732976  0
0.012543 -0.0601081  0
0.0201748 -0.0333216  0
0.0220549 0.00967631  0
0.0172082 0.0611623  0
0.0065272 0.0990113  0
0.00244408 -0.0699543  0
0.00737295 -0.0708786  0
0.0126481 -0.0732251  0
0.0189951 -0.0772178  0
0.0272934 -0.0824679  0
0.0382316 -0.0881812  0
0.0522748 -0.0932907  0
0.0696252 -0.096516  0
0.0900933 -0.0963801  0
0.113036 -0.0915202  0
0.137366 -0.0809968  0
0.161831 -0.0648273  0
0.185589 -0.0441139  0
0.207156 -0.018369  0
0.221988 0.0139093  0
0.228951 0.044255  0
0.225174 0.0841748  0
0.203636 0.126104  0
0.160073 0.168073  0
0.0921196 0.204516  0
0.0120479 0.208717  0
-0.0606291 0.188894  0
-0.111689 0.150646  0
-0.137851 0.114854  0
-0.148578 0.0855773  0
-0.153238 0.0610946  0
-0.153587 0.0308513  0
-0.145555 -0.00462202  0
-0.12884 -0.036486  0
-0.106566 -0.0625147  0
-0.0817809 -0.0805006  0
-0.0573359 -0.0911671  0
-0.0347894 -0.0958431  0
-0.0148759 -0.0950081  0
0.00183558 -0.0876458  0
0.0146313 -0.0705568  0
0.02249 -0.0385111  0
0.0241061 0.0112217  0
0.01862 0.0698018  0
0.00703019 0.112495  0
0.00140222 -0.073893  0
0.0040458 -0.0746791  0
0.00677734 -0.0775906  0
0.0107584 -0.0833303  0
0.0173402 -0.0913629  0
0.0275233 -0.100549  0
0.0420646 -0.109649  0
0.0616411 -0.117219  0
0.0865914 -0.121234  0
0.116627 -0.119776  0
0.150612 -0.11119  0
0.186555 -0.0951772  0
0.224348 -0.0754479  0
0.26226 -0.0466466  0
0.286052 0.00343336  0
0.29738 0.0363142  0
0.301253 0.0918932  0
0.284157 0.156894  0
0.226416 0.23846  0
0.114565 0.313808  0
-0.0162753 0.310211  0
-0.127051 0.270727  0
-0.195245 0.187939  0
-0.21526 0.12361  0
-0.215297 0.0874573  0
-0.215836 0.0642836  0
-0.215499 0.0275436  0
-0.200216 -0.0247621  0
-0.170018 -0.063394  0
-0.134104 -0.0939329  0
-0.0970133 -0.111097  0
-0.0638732 -0.118296  0
-0.0362486 -0.119027  0
-0.0138916 -0.114237  0
0.0035236 -0.102686  0
0.0160044 -0.0809362  0
0.0232893 -0.0434183  0
0.0246576 0.0130014  0
0.0191353 0.0788875  0
0.0072689 0.126722  0
-0.000750377 -0.0746331  0
-0.00276294 -0.0747338  0
-0.00507306 -0.0781095  0
-0.00571858 -0.0862812  0
-0.0026915 -0.098151  0
0.00514426 -0.111918  0
0.0188173 -0.126629  0
0.0400375 -0.141168  0
0.0701514 -0.15248  0
0.109238 -0.157782  0
0.155585 -0.153642  0
0.202879 -0.13609  0
0.254156 -0.123732  0
0.312177 -0.0944211  0
0.335362 0.00411075  0
0.331513 0.0280415  0
0.340644 0.087044  0
0.354139 0.165227  0
0.305742 0.336146  0
0.123029 0.510567  0
-0.0754573 0.442659  0
-0.205118 0.378595  0
-0.269157 0.212184  0
-0.264 0.114104  0
-0.254085 0.0869641  0
-0.260791 0.0718993  0
-0.275375 0.0340503  0
-0.259143 -0.0629091  0
-0.211651 -0.103068  0
-0.160867 -0.14109  0
-0.108224 -0.153809  0
-0.0648624 -0.152223  0
-0.0328351 -0.14489  0
-0.0101751 -0.13353  0
0.00524663 -0.116369  0
0.0150241 -0.0896502  0
0.0205115 -0.0476152  0
0.0221944 0.0140087  0
0.0182571 0.0872015  0
0.00723578 0.141158  0
-0.00549596 -0.0684713  0
-0.0173895 -0.0671484  0
-0.0295855 -0.0713304  0
-0.0384858 -0.0836416  0
-0.0411846 -0.10125  0
-0.0372128 -0.12076  0
-0.0257081 -0.143094  0
-0.00279068 -0.16897  0
0.0333678 -0.191075  0
0.0817281 -0.206757  0
0.139667 -0.209074  0
0.186504 -0.17491  0
0.233696 -0.1835  0
0.309091 -0.168187  0
0.319025 0.0446717  0
0.26417 0.0461284  0
0.23708 0.0868601  0
0.228376 0.160562  0
0.223306 0.394218  0
0.0520953 0.806359  0
-0.121252 0.518643  0
-0.141368 0.452329  0
-0.162657 0.223721  0
-0.179252 0.113947  0
-0.212158 0.110053  0
-0.237027 0.0802962  0
-0.287292 0.0904125  0
-0.290979 -0.13191  0
-0.228025 -0.14464  0
-0.174289 -0.204167  0
-0.108906 -0.208889  0
-0.0569759 -0.192567  0
-0.0220348 -0.171648  0
-0.00167725 -0.149924  0
0.00844029 -0.12565  0
0.0128687 -0.0947105  0
0.015504 -0.0508118  0
0.0184433 0.0124494  0
0.0180178 0.0929902  0
0.00797403 0.156301  0
-0.0151082 -0.0479477  0
-0.0462528 -0.044785  0
-0.075818 -0.0520648  0
-0.0966019 -0.0733486  0
-0.10434 -0.101236  0
-0.102401 -0.126814  0
-0.0920295 -0.159041  0
-0.0640387 -0.204056  0
-0.0232775 -0.23303  0
0.026879 -0.263438  0
0.0849329 -0.268474  0
0.114244 -0.191716  0
0.119193 -0.218893  0
0.123446 -0.212499  0
0.210255 -0.0667385  0
0.256958 0.0333164  0
0.189056 0.0467232  0
0.076514 0.0813399  0
-0.182662 0.198585  0
-0.0111855 0.487309  0
0.132379 0.261866  0
0.00550653 0.233677  0
0.00888084 0.114992  0
-0.130573 0.0621398  0
-0.210566 0.110097  0
-0.225704 0.0850647  0
-0.199115 -0.0189211  0
-0.170023 -0.176224  0
-0.179031 -0.154334  0
-0.153354 -0.273983  0
-0.0922611 -0.265677  0
-0.0426553 -0.237443  0
-0.00542856 -0.19907  0
0.0137333 -0.162152  0
0.019105 -0.129042  0
0.019337 -0.0961098  0
0.01992 -0.052761  0
0.0222523 0.00899791  0
0.0234164 0.0955747  0
0.0114187 0.17563  0
-0.0310353 -0.00188029  0
-0.0929141 0.00202895  0
-0.146659 -0.0156945  0
-0.177554 -0.058165  0
-0.179544 -0.106818  0
-0.172096 -0.130744  0
-0.161888 -0.175812  0
-0.123605 -0.25368  0
-0.0903405 -0.257521  0
-0.0865973 -0.292905  0
-0.0388634 -0.294998  0
0.0772722 -0.096206  0
0.129236 -0.111573  0
0.118122 -0.10625  0
0.061723 -0.10625  0
0 0  0
0 0  0
0 0  0
0 0  0
0 0  0
0 0  0
0 0  0
0 0  0
0 0  0
-0.1116 0.0437838  0
-0.225704 0.0437838  0
-0.199115 -0.0881122  0
-0.185472 -0.0881122  0
-0.127347 -0.227013  0
-0.0537718 -0.308701  0
-0.0540576 -0.291831  0
-0.0321219 -0.282927  0
0.00674252 -0.229806  0
0.0323659 -0.176331  0
0.0449679 -0.132966  0
0.0535436 -0.101121  0
0.0578243 -0.0527392  0
0.0451819 0.0191623  0
0.0309377 0.0983675  0
0.0143312 0.201318  0
-0.051486 0.0805706  0
-0.149173 0.0790117  0
-0.223661 0.0354318  0
-0.252637 -0.0495444  0
-0.229652 -0.136557  0
-0.2136 -0.124595  0
-0.212836 -0.192994  0
-0.204447 -0.283231  0
-0.129702 -0.272248  0
-0.0707768 -0.146453  0
-0.0432986 -0.146453  0
0 0  0
0 0  0
0 0  0
0 0  0
0 0  0
0 0  0
0 0  0
0 0  0
0 0  0
0 0  0
0 0  0
0 0  0
0 0  0
0 0  0
0 0  0
0 0  0
0 0  0
-0.0268859 -0.15435  0
-0.0623498 -0.15435  0
-0.0351563 -0.298363  0
0.00061518 -0.305181  0
0.0115091 -0.257374  0
0.0422161 -0.205188  0
0.0802507 -0.154873  0
0.120089 -0.127755  0
0.148424 -0.0588446  0
0.0907913 0.0954528  0
0.00936333 0.117689  0
-0.00385654 0.211762  0
-0.0772942 0.209317  0
-0.202978 0.173572  0
-0.272147 0.0844656  0
-0.292397 -0.0494135  0
-0.291868 -0.160264  0
-0.21434 -0.138617  0
-0.129705 -0.100691  0
-0.163523 -0.141615  0
-0.102223 -0.141615  0
0 0  0
0 0  0
0 0  0
0 0  0
0 0  0
0 0  0
0 0  0
0 0  0
0 0  0
0 0  0
0 0  0
0 0  0
0 0  0
0 0  0
0 0  0
0 0  0
0 0  0
0 0  0
0 0  0
0 0  0
0 0  0
0.00030759 -0.15259  0
-0.0178412 -0.15259  0
0.0212394 -0.246651  0
0.0787763 -0.225034  0
0.10554 -0.199922  0
0.160411 -0.177543  0
0.18852 -0.0655929  0
0.119999 0.0471057  0
-0.0146875 0.0673828  0
-0.0404267 0.103953  0
-0.0449696 0.143306  0
-0.112295 0.110981  0
-0.136195 0.0526222  0
-0.159643 -0.024971  0
-0.236708 -0.0801318  0
-0.145934 -0.0801318  0
0 0  0
0 0  0
0 0  0
0 0  0
0 0  0
0 0  0
0 0  0
0 0  0
0 0  0
0 0  0
0 0  0
0 0  0
0 0  0
0 0  0
0 0  0
0 0  0
0 0  0
0 0  0
0 0  0
0 0  0
0 0  0
0 0  0
0 0  0
0 0  0
0 0  0
0 0  0
0.0393882 -0.112517  0
0.102729 -0.225875  0
0.126681 -0.226717  0
0.126681 -0.205683  0
0.157601 -0.135638  0
0.0942601 -0.0327965  0
0 0  0
0 0  0
0 0  0
0 0  0
0 0  0
0 0  0
0 0  0
0 0  0
0 0  0
0 0  0
0 0  0
0 0  0
0 0  0
0 0  0
0 0  0
0 0  0
0 0  0
0 0  0
0 0  0
0 0  0
0 0  0
0 0  0
0 0  0
0 0  0
0 0  0
0 0  0
0 0  0
0 0  0
0 0  0
0 0  0
0 0  0
0 0  0
0 0  0
0 0  0
0 0  0
0.0633405 -0.113358  0
0.116164 -0.113358  0
0.116164 -0.102841  0
0.0633405 -0.102841  0
0 0  0
0 0  0
0 0  0
0 0  0
0 0  0
0 0  0
0 0  0
0 0  0
0 0  0
0 0  0
0 0  0
0 0  0
0 0  0
0 0  0
0 0  0
0 0  0
0 0  0
0 0  0
0 0  0
0 0  0
0 0  0
0 0  0
0 0  0
0 0  0
0 0  0
0 0  0
0 0  0
0 0  0
0 0  0
0 0  0
0 0  0
0 0  0
0 0  0
0 0  0
0 0  0
0 0  0
0 0  0
0 0  0
0 0  0
0 0  0
0 0  0
0 0  0
0 0  0
0 0  0
0 0  0
0 0  0
0 0  0
0 0  0
0 0  0
0 0  0
0 0  0
0 0  0
0 0  0
0 0  0
0 0  0
0 0  0
0 0  0
0 0  0
0 0  0
0 0  0
0 0  0
0 0  0
0 0  0
0 0  0
0 0  0
0 0  0
0 0  0
0 0  0
0 0  0
0 0  0
0 0  0
0 0  0
0 0  0
0 0  0
0 0  0
0 0  0
0 0  0
0 0  0
0 0  0
0 0  0
0 0  0
0 0  0
0 0  0
0 0  0
0 0  0
0 0  0
0 0  0
0 0  0
0 0  0
0 0  0
0 0  0
0 0  0
0 0  0
0 0  0
0 0  0
0 0  0
0 0  0
0 0  0
0 0  0
0 0  0
0 0  0
0 0  0
0 0  0
0 0  0
0 0  0
0 0  0
0 0  0
0 0  0
0 0  0
0 0  0
0 0  0
0 0  0
0 0  0
0 0  0
0 0  0
0 0  0
0 0  0
0 0  0
0 0  0
0 0  0
0 0  0
0 0  0
0 0  0
0 0  0
0 0  0
0 0  0
0 0  0
0 0  0
0 0  0
0 0  0
0 0  0
0 0  0
0 0  0
0 0  0
0 0  0
0 0  0
0 0  0
0 0  0
0 0  0
0 0  0
0 0  0
0 0  0
0 0  0
0 0  0
0 0  0
0 0  0
0 0  0
0 0  0
0 0  0
0 0  0
0 0  0
0 0  0
0 0  0
0 0  0
0 0  0
0 0  0
0 0  0
0 0  0
0 0  0
0 0  0
0 0  0
0 0  0
0 0  0
0 0  0
0 0  0
0 0  0
0 0  0
0 0  0
0 0  0
0 0  0
0 0  0
0 0  0
0 0  0
0 0  0
0 0  0
0 0  0
0 0  0
0 0  0
0 0  0
0 0  0
0 0  0
0 0  0
0 0  0
0 0  0
0 0  0
0 0  0
0 0  0
0 0  0
0 0  0
0 0  0
0 0  0
0 0  0
0 0  0
0 0  0
0 0  0
0 0  0
0 0  0
0 0  0
0 0  0
0 0  0
0 0  0
0 0  0
0 0  0
0 0  0
0 0  0
0 0  0
0 0  0
0 0  0
0 0  0
0 0  0
0 0  0
0 0  0
0 0  0
0 0  0
0 0  0
0 0  0
0 0  0
0 0  0
0 0  0
0 0  0
0 0  0
0 0  0
0 0  0
0 0  0
0 0  0
0 0  0
0 0  0
0 0  0
0 0  0
0 0  0
0 0  0
0 0  0
0 0  0
0 0  0
0 0  0
0 0  0
0 0  0
0 0  0
0 0  0
0 0  0
0 0  0
0 0  0
0 0  0
0 0  0
0 0  0
0 0  0
0 0  0
0 0  0
0 0  0
0 0  0
0 0  0
0 0  0
0 0  0
0 0  0
0 0  0
0 0  0
0 0  0
0 0  0
0 0  0
0 0  0
0 0  0
0 0  0
0 0  0
0 0  0
0 0  0
0 0  0
0 0  0
0 0  0
0 0  0
0 0  0
0 0  0
0 0  0
0 0  0
0 0  0
0 0  0
0 0  0
0 0  0
0 0  0
0 0  0
0 0  0
0 0  0
0 0  0
0 0  0
0 0  0
0 0  0
0 0  0
0 0  0
0 0  0
0 0  0
0 0  0
0 0  0
0 0  0
0 0  0
0 0  0
0 0  0
0 0  0
0 0  0
0 0  0
0 0  0
0 0  0
0 0  0
0 0  0
0 0  0
0 0  0
0 0  0
0 0  0
0 0  0
0 0  0
0 0  0
0 0  0
0 0  0
0 0  0
0 0  0
0 0  0
0 0  0
0 0  0
0 0  0
0 0  0
0 0  0
0 0  0
0 0  0
0 0  0
0 0  0
0 0  0
0 0  0
0 0  0
0 0  0
0 0  0
0 0  0
0 0  0
0 0  0
0 0  0
0 0  0
0 0  0
0 0  0
0 0  0
0 0  0
0 0  0
0 0  0
0 0  0
0 0  0
0 0  0
0 0  0
0 0  0
0 0  0
0 0  0
0 0  0
0 0  0
0 0  0
0 0  0
0 0  0
0 0  0
0 0  0
0 0  0
0 0  0
0 0  0
0 0  0
0 0  0
0 0  0
0 0  0
0 0  0
0 0  0
0 0  0
0 0  0
0 0  0
0 0  0
0 0  0
0 0  0
0 0  0
0 0  0
0 0  0
0 0  0
0 0  0
0 0  0
0 0  0
0 0  0
0 0  0
0 0  0
0 0  0
0 0  0
0 0  0
0 0  0
0 0  0
0 0  0
0 0  0
0 0  0
0 0  0
0 0  0
0 0  0
0 0  0
0 0  0
0 0  0
0 0  0
0 0  0
0 0  0
0 0  0
0 0  0
0 0  0
0 0  0
0 0  0
0 0  0
0 0  0
0 0  0
0 0  0
0 0  0
0 0  0
0 0  0
0 0  0
0 0  0
0 0  0
0 0  0
0 0  0
0 0  0
0 0  0
0 0  0
0 0  0
0 0  0
0 0  0
0 0  0
0 0  0
0 0  0
0 0  0
0 0  0
0 0  0
0 0  0
0 0  0
0 0  0
0 0  0
0 0  0
0 0  0
0 0  0
0 0  0
0 0  0
0 0  0
0 0  0
0 0  0
0 0  0
0 0  0
0 0  0
0 0  0
0 0  0
0 0  0
0 0  0

SCALARS pressure double 1
LOOKUP_TABLE default
3.69974
3.69472
3.68687
3.67584
3.66153
3.64451
3.62534
3.60436
3.58201
3.55876
3.53836
3.51686
3.49601
3.47769
3.46149
3.44746
3.4362
3.42793
3.42263
3.42025
3.42084
3.42442
3.43091
3.4402
3.45212
3.46649
3.48303
3.50136
3.521
3.54141
3.56205
3.58233
3.6017
3.61969
3.63584
3.6498
3.6613
3.67017
3.67629
3.67946
3.49308
3.48892
3.48073
3.46907
3.45465
3.43748
3.41785
3.39634
3.37344
3.3531
3.32916
3.30758
3.28743
3.26821
3.2515
3.23757
3.22614
3.2176
3.21213
3.20975
3.21033
3.21385
3.2203
3.22964
3.24172
3.2563
3.27312
3.2918
3.31187
3.33274
3.35384
3.37456
3.39434
3.41268
3.42913
3.44333
3.45501
3.46402
3.47022
3.47343
3.28247
3.27744
3.26895
3.2572
3.24211
3.22415
3.20376
3.18128
3.1604
3.13551
3.1126
3.08974
3.06831
3.04883
3.03139
3.01665
3.005
2.99626
2.99059
2.98803
2.98856
2.99211
2.99864
3.00813
3.02051
3.03561
3.05314
3.07267
3.09368
3.11557
3.13769
3.1594
3.18009
3.1992
3.2163
3.23101
3.24309
3.25237
3.25874
3.26204
3.06625
3.06148
3.05261
3.04
3.02407
3.00504
2.98324
2.96158
2.9366
2.91194
2.88653
2.86262
2.83983
2.81887
2.8005
2.78506
2.77267
2.76363
2.75779
2.75511
2.75554
2.75907
2.76571
2.77549
2.78837
2.80427
2.8229
2.8438
2.86637
2.88991
2.91368
2.93695
2.95905
2.97938
2.9975
3.01301
3.02568
3.03537
3.042
3.04542
2.84602
2.84073
2.83135
2.8179
2.80067
2.78005
2.75789
2.73319
2.70647
2.67943
2.65228
2.62582
2.60121
2.57858
2.55865
2.54207
2.52906
2.51957
2.51355
2.5108
2.51116
2.51462
2.5213
2.53136
2.54491
2.56193
2.58212
2.60497
2.6298
2.65571
2.68184
2.70733
2.73142
2.75345
2.77294
2.78953
2.80299
2.81321
2.82016
2.82373
2.62154
2.61605
2.60578
2.5911
2.57225
2.55029
2.52588
2.49791
2.46906
2.43877
2.40882
2.37966
2.35219
2.32727
2.30546
2.28741
2.27355
2.26379
2.25774
2.25502
2.25529
2.25855
2.2651
2.27532
2.28961
2.30804
2.33033
2.35588
2.38377
2.41293
2.44227
2.47074
2.49746
2.5217
2.54295
2.56087
2.57527
2.58611
2.59341
2.59713
2.39349
2.38753
2.37633
2.36011
2.33948
2.31549
2.2874
2.25658
2.22381
2.19011
2.15619
2.12344
2.09255
2.06444
2.04008
2.02033
2.00559
1.99576
1.99012
1.98772
1.98787
1.99062
1.99657
2.00666
2.02166
2.04181
2.06683
2.09596
2.12801
2.16152
2.1951
2.22745
2.25754
2.28454
2.30793
2.3274
2.34284
2.35431
2.36194
2.36579
2.16245
2.15587
2.14348
2.12551
2.10278
2.07549
2.04357
2.00878
1.97136
1.93287
1.89429
1.85683
1.82157
1.78938
1.76152
1.73955
1.72411
1.71478
1.71036
1.70896
1.70895
1.71053
1.71492
1.72426
1.7398
1.762
1.79049
1.82445
1.8621
1.90142
1.94054
1.97788
2.01219
2.04256
2.06844
2.08962
2.10608
2.11808
2.12593
2.12983
1.92902
1.92181
1.90798
1.888
1.86244
1.83103
1.79488
1.75473
1.71167
1.66705
1.62253
1.5794
1.53858
1.5009
1.46804
1.44308
1.42713
1.4194
1.41784
1.41886
1.41853
1.41748
1.4188
1.42632
1.44205
1.46668
1.49956
1.54014
1.58542
1.63255
1.67894
1.72261
1.76213
1.79653
1.82523
1.84815
1.86544
1.87767
1.88547
1.88929
1.69403
1.68606
1.67065
1.64828
1.61907
1.58315
1.54167
1.49501
1.44469
1.39232
1.3402
1.29037
1.24282
1.19739
1.1566
1.1273
1.11109
1.10644
1.11068
1.11723
1.11558
1.10921
1.10525
1.10965
1.12532
1.15309
1.19092
1.241
1.29704
1.35489
1.4108
1.46248
1.50839
1.54753
1.57934
1.60384
1.62148
1.63333
1.64057
1.64403
1.4584
1.44956
1.43241
1.40717
1.37371
1.33268
1.28473
1.23029
1.17053
1.10793
1.04576
0.988705
0.933904
0.877183
0.821412
0.786228
0.769861
0.769283
0.782921
0.80202
0.793969
0.77885
0.767931
0.769087
0.785283
0.818287
0.85846
0.923676
0.995524
1.06852
1.13695
1.19867
1.25234
1.29706
1.33225
1.35792
1.37497
1.3853
1.39105
1.39366
1.22307
1.21335
1.19429
1.1657
1.12745
1.08045
1.02528
0.961491
0.889452
0.812666
0.735066
0.673197
0.61383
0.540767
0.451232
0.413559
0.397816
0.397749
0.417292
0.463767
0.434477
0.410709
0.397051
0.399254
0.417152
0.46459
0.486523
0.584354
0.679434
0.774109
0.8586
0.932864
0.995902
1.04726
1.08615
1.11232
1.12714
1.13385
1.13645
1.13735
0.988997
0.978398
0.957313
0.924946
0.881024
0.827018
0.764788
0.690382
0.601845
0.50595
0.395339
0.34313
0.293174
0.203472
0.0161916
0.0102142
0.00320415
0.00119715
0
0.0874022
0
0.00748478
0.00318629
0.00511127
0.0101071
0.126605
0.0212521
0.228114
0.349506
0.474624
0.577372
0.667296
0.74148
0.801094
0.844306
0.869958
0.879738
0.878876
0.8755
0.873385
0.756698
0.745191
0.722159
0.68572
0.634409
0.570871
0.504561
0.421004
0.30826
0.198938
-0.0172882
0.000742784
-0.00207757
-0.0217661
0
0
0
0
0
0
0
0
0
0
0
0
0
-0.0382917
0.00369585
0.181467
0.294198
0.405235
0.491475
0.562353
0.611332
0.635126
0.634852
0.618432
0.604965
0.598449
0.524723
0.51215
0.48804
0.448747
0.387788
0.305055
0.24676
0.16457
-0.00323047
-0.0170575
0
0
0
0
0
0
0
0
0
0
0
0
0
0
0
0
0
0
0
-0.0508618
-0.000818179
0.15534
0.246518
0.335605
0.394014
0.414574
0.39568
0.344982
0.318376
0.307424
0.289986
0.276061
0.252861
0.217152
0.149397
0.00269464
-0.00408971
-0.0208397
0
0
0
0
0
0
0
0
0
0
0
0
0
0
0
0
0
0
0
0
0
0
0
-0.0402379
-0.00639841
0.129076
0.203667
0.220542
0.171856
0.0312753
0.00819006
-0.00215761
0.0388906
0.0242998
0.0104993
-0.000129752
-0.0213553
0
0
0
0
0
0
0
0
0
0
0
0
0
0
0
0
0
0
0
0
0
0
0
0
0
0
0
0
-0.029026
0.0581062
0.0764156
0.0191016
0
0
0
0
0
0
0
0
0
0
0
0
0
0
0
0
0
0
0
0
0
0
0
0
0
0
0
0
0
0
0
0
0
0
0
0
0
-0.0302265
-0.00134883
0
0
0
0
0
0
0
0
0
0
0
0
0
0
0
0
0
0
0
0
0
0
0
0
0
0
0
0
0
0
0
0
0
0
0
0
0
0
0
0
0
0
0
0
0
0
0
0
0
0
0
0
0
0
0
0
0
0
0
0
0
0
0
0
0
0
0
0
0
0
0
0
0
0
0
0
0
0
0
0
0
0
0
0
0
0
0
0
0
0
0
0
0
0
0
0
0
0
0
0
0
0
0
0
0
0
0
0
0
0
0
0
0
0
0
0
0
0
0
0
0
0
0
0
0
0
0
0
0
0
0
0
0
0
0
0
0
0
0
0
0
0
0
0
0
0
0
0
0
0
0
0
0
0
0
0
0
0
0
0
0
0
0
0
0
0
0
0
0
0
0
0
0
0
0
0
0
0
0
0
0
0
0
0
0
0
0
0
0
0
0
0
0
0
0
0
0
0
0
0
0
0
0
0
0
0
0
0
0
0
0
0
0
0
0
0
0
0
0
0
0
0
0
0
0
0
0
0
0
0
0
0
0
0
0
0
0
0
0
0
0
0
0
0
0
0
0
0
0
0
0
0
0
0
0
0
0
0
0
0
0
0
0
0
0
0
0
0
0
0
0
0
0
0
0
0
0
0
0
0
0
0
0
0
0
0
0
0
0
0
0
0
0
0
0
0
0
0
0
0
0
0
0
0
0
0
0
0
0
0
0
0
0
0
0
0
0
0
0
0
0
0
0
0
0
0
0
0
0
0
0
0
0
0
0
0
0
0
0
0
0
0
0
0
0
0
0
0
0
0
0
0
0
0
0
0
0
0
0
0
0
0
0
0
0
0
0
0
0
0
0
0
0
0
0
0
0
0
0
0
0
0
0
0
0
0
0
0
0
0
0
0
0
0
0
0
0
0
0
0
0
0
0
0
0
0
0
0
0
0
0
0
0
0
0
0
0
0
0
0
0
0
0
0
0
0
0
0
0
0
0
0
0
0
0
0
0
0
0
0
0
0
0
0
0
0
0
0
0
0
0
0
0
0
0
0
0
0
0
0
0
0
0
0
0
0
0
0
0
0
0
0
0
0
0
0
0
0
0
0
0
0
0
0
SCALARS rhs double 1
LOOKUP_TABLE default
-5.34988
-5.24862
-5.26458
-5.28282
-5.27073
-5.2603
-5.2627
-5.26525
-5.26423
-5.25885
-5.25938
-5.25926
-5.25882
-5.25873
-5.2589
-5.25928
-5.26277
-5.2607
-5.26274
-5.26512
-5.2651
-5.26551
-5.26678
-5.26744
-5.26787
-5.26775
-5.26859
-5.26956
-5.27076
-5.27226
-5.27407
-5.27583
-5.27684
-5.27803
-5.27895
-5.27918
-5.27858
-5.27843
-5.28061
-5.28525
-0.234972
-0.248732
-0.234693
-0.203602
-0.216455
-0.226237
-0.218776
-0.215368
-0.21475
-0.219341
-0.216221
-0.215178
-0.215072
-0.215323
-0.215651
-0.218914
-0.212993
-0.219672
-0.219225
-0.217999
-0.220192
-0.220815
-0.21954
-0.219351
-0.219875
-0.218905
-0.218353
-0.218443
-0.219093
-0.219841
-0.220159
-0.220373
-0.22064
-0.221702
-0.222167
-0.221537
-0.22033
-0.220002
-0.2223
-0.227293
-0.29529
-0.206249
-0.202115
-0.222821
-0.216111
-0.211591
-0.217458
-0.21635
-0.215756
-0.214435
-0.215477
-0.214905
-0.214604
-0.213952
-0.216736
-0.211157
-0.219693
-0.215338
-0.217271
-0.219322
-0.218585
-0.21858
-0.219395
-0.219501
-0.218114
-0.21766
-0.217851
-0.217793
-0.218269
-0.218096
-0.218491
-0.219554
-0.220325
-0.220297
-0.220377
-0.219803
-0.218632
-0.218089
-0.220267
-0.22505
-0.248351
-0.227484
-0.222957
-0.210837
-0.217571
-0.22022
-0.214952
-0.214666
-0.216194
-0.215048
-0.214224
-0.214314
-0.214
-0.215735
-0.211202
-0.217935
-0.213094
-0.218081
-0.21731
-0.217588
-0.218885
-0.219145
-0.218552
-0.219487
-0.218262
-0.217658
-0.217224
-0.217631
-0.217131
-0.217698
-0.218788
-0.219311
-0.21939
-0.218967
-0.219514
-0.218552
-0.217171
-0.216561
-0.218622
-0.223149
-0.264824
-0.206568
-0.214583
-0.217502
-0.214371
-0.215693
-0.216925
-0.216426
-0.214284
-0.215589
-0.215092
-0.214548
-0.215447
-0.212808
-0.215899
-0.214039
-0.21728
-0.21591
-0.21863
-0.218727
-0.218996
-0.219426
-0.220153
-0.220144
-0.218335
-0.218208
-0.218258
-0.216403
-0.21814
-0.218699
-0.218611
-0.21879
-0.219141
-0.218381
-0.218256
-0.21745
-0.215999
-0.215285
-0.217184
-0.22141
-0.250968
-0.220002
-0.211579
-0.213376
-0.215005
-0.21363
-0.214927
-0.215868
-0.215907
-0.215263
-0.215858
-0.216346
-0.215954
-0.215779
-0.216434
-0.216812
-0.217907
-0.21982
-0.219694
-0.221523
-0.221721
-0.221412
-0.224141
-0.221162
-0.220553
-0.220182
-0.218147
-0.219798
-0.2198
-0.219356
-0.219493
-0.219455
-0.219073
-0.218174
-0.217304
-0.216574
-0.215158
-0.214475
-0.216178
-0.220005
-0.246301
-0.212843
-0.215135
-0.212707
-0.213354
-0.214546
-0.215159
-0.215174
-0.21667
-0.217168
-0.2178
-0.218882
-0.219231
-0.22087
-0.219909
-0.222343
-0.223359
-0.225465
-0.22766
-0.22867
-0.229063
-0.23033
-0.22989
-0.225969
-0.225274
-0.223395
-0.224323
-0.223052
-0.223664
-0.222687
-0.221653
-0.220858
-0.21996
-0.21846
-0.216675
-0.216198
-0.214869
-0.214265
-0.215724
-0.219082
-0.243357
-0.209522
-0.211682
-0.212724
-0.212214
-0.214142
-0.215713
-0.217132
-0.218286
-0.220382
-0.222405
-0.224393
-0.22777
-0.231038
-0.23058
-0.233751
-0.23848
-0.242436
-0.247548
-0.252209
-0.251436
-0.25793
-0.242386
-0.237805
-0.234408
-0.234449
-0.232946
-0.233082
-0.232045
-0.229124
-0.226477
-0.223986
-0.221884
-0.21955
-0.216565
-0.21633
-0.215019
-0.214536
-0.215751
-0.218683
-0.236869
-0.210602
-0.208972
-0.210552
-0.212097
-0.213921
-0.216289
-0.219644
-0.222618
-0.226302
-0.231007
-0.236643
-0.245302
-0.257303
-0.253056
-0.260729
-0.27398
-0.287128
-0.304221
-0.324163
-0.333396
-0.322793
-0.283052
-0.264784
-0.254591
-0.252766
-0.253033
-0.256417
-0.250245
-0.242515
-0.235423
-0.229813
-0.225377
-0.221404
-0.216947
-0.216585
-0.214797
-0.214354
-0.215634
-0.218587
-0.230359
-0.208748
-0.208791
-0.209293
-0.212135
-0.215125
-0.219009
-0.223894
-0.230128
-0.237788
-0.24755
-0.259482
-0.278435
-0.3027
-0.306828
-0.305233
-0.341143
-0.383221
-0.456807
-0.543942
-0.584334
-0.492058
-0.385097
-0.31663
-0.281186
-0.27978
-0.290924
-0.30705
-0.285523
-0.269192
-0.252136
-0.239171
-0.230408
-0.223452
-0.217109
-0.215482
-0.211924
-0.211398
-0.213794
-0.21808
-0.226001
-0.205565
-0.207963
-0.210668
-0.214845
-0.219989
-0.226478
-0.234767
-0.245774
-0.26052
-0.278872
-0.289972
-0.326594
-0.381086
-0.358448
-0.317122
-0.373372
-0.502023
-0.808486
-1.25322
-1.12226
-0.838112
-0.535742
-0.354171
-0.28077
-0.292264
-0.360333
-0.384652
-0.336568
-0.317046
-0.281906
-0.253599
-0.236163
-0.224241
-0.215549
-0.210813
-0.203652
-0.202908
-0.208529
-0.216376
-0.222195
-0.207477
-0.212522
-0.220301
-0.227077
-0.233151
-0.243192
-0.262886
-0.281828
-0.305256
-0.330676
-0.300413
-0.355267
-0.430976
-0.320154
-0.214168
-0.168318