# vtk DataFile Version 4.0
Nusif Fluid VTK output
ASCII
DATASET STRUCTURED_POINTS
DIMENSIONS 40 30 1
ORIGIN 0 0 0 
SPACING 0.2 0.2 1
POINT_DATA 1200 

VECTORS velocity double
-0.00265514 0.00191546  0
-0.00790638 0.00191047  0
-0.013082 0.00189503  0
-0.0182075 0.00186265  0
-0.0232398 0.00180353  0
-0.0281124 0.00170465  0
-0.0327302 0.00154998  0
-0.0369636 0.00132126  0
-0.0406456 0.00099943  0
-0.0435721 0.00056646  0
-0.0455069 8.2207e-06  0
-0.0461928 -0.000681904  0
-0.045371 -0.00149897  0
-0.042808 -0.00242281  0
-0.0383279 -0.00341567  0
-0.0318479 -0.00442225  0
-0.0234095 -0.00537353  0
-0.0131984 -0.0061944  0
-0.00154623 -0.00681403  0
0.0110895 -0.00717721  0
0.0241655 -0.00725344  0
0.0371077 -0.00704252  0
0.0493723 -0.00657487  0
0.060502 -0.00590658  0
0.070168 -0.00511008  0
0.0781909 -0.00426236  0
0.084539 -0.00343416  0
0.0893074 -0.00268159  0
0.0926847 -0.002042  0
0.0949161 -0.00153459  0
0.0962703 -0.00116396  0
0.0970167 -0.000925934  0
0.0974138 -0.000813976  0
0.0977099 -0.000824233  0
0.0981415 -0.000948982  0
0.0988435 -0.00109419  0
0.0992405 -0.000643744  0
0.09569 0.00285368  0
0.0773186 0.0141772  0
0.0312356 0.0305654  0
-0.00266034 0.00580731  0
-0.00792713 0.00579439  0
-0.0131299 0.00575357  0
-0.018299 0.0056654  0
-0.0233978 0.00550043  0
-0.0283661 0.00521911  0
-0.0331136 0.0047727  0
-0.0375141 0.00410531  0
-0.0414003 0.00315754  0
-0.0445633 0.00187245  0
-0.0467552 0.000204096  0
-0.0477 -0.00187135  0
-0.0471122 -0.00434287  0
-0.044725 -0.00715244  0
-0.0403275 -0.0101865  0
-0.0338058 -0.0132753  0
-0.0251818 -0.0162044  0
-0.0146393 -0.018738  0
-0.00252929 -0.0206527  0
0.01065 -0.0217727  0
0.0242999 -0.0220019  0
0.037786 -0.0213391  0
0.0505081 -0.0198805  0
0.0619668 -0.0178037  0
0.0718122 -0.0153372  0
0.0798662 -0.0127237  0
0.0861187 -0.0101835  0
0.0906983 -0.00788894  0
0.0938307 -0.00595171  0
0.0957936 -0.00442525  0
0.0968787 -0.00331765  0
0.0973661 -0.00261003  0
0.0975119 -0.00227592  0
0.0975463 -0.00229524  0
0.0976662 -0.00263132  0
0.0979316 -0.00298055  0
0.0976608 -0.00148478  0
0.0932146 0.00909077  0
0.0743751 0.0425503  0
0.0297745 0.0902751  0
-0.00266869 0.00977219  0
-0.00796103 0.00975979  0
-0.0132113 0.00971212  0
-0.0184608 0.00959693  0
-0.0236862 0.00936487  0
-0.0288402 0.00894914  0
-0.033844 0.0082664  0
-0.0385787 0.00721936  0
-0.0428785 0.00570226  0
-0.0465257 0.00361061  0
-0.0492507 0.000855715  0
-0.0507399 -0.00261618  0
-0.0506524 -0.00680039  0
-0.0486519 -0.0116095  0
-0.044451 -0.0168546  0
-0.0378661 -0.0222405  0
-0.0288725 -0.0273833  0
-0.017647 -0.0318532  0
-0.00458131 -0.0352388  0
0.00973986 -0.0372122  0
0.0245988 -0.037596  0
0.0392289 -0.0363855  0
0.0529078 -0.0337587  0
0.0650451 -0.0300446  0
0.0752471 -0.0256659  0
0.083343 -0.0210667  0
0.089372 -0.0166432  0
0.0935381 -0.0126955  0
0.0961477 -0.00940724  0
0.0975494 -0.00685393  0
0.0980846 -0.00502855  0
0.0980565 -0.00387737  0
0.0977182 -0.00333471  0
0.0972729 -0.00334407  0
0.0968653 -0.00381318  0
0.0964786 -0.00419561  0
0.0953703 -0.00140892  0
0.0900646 0.0162486  0
0.0711452 0.070633  0
0.0283147 0.147105  0
-0.00267372 0.0137586  0
-0.00798861 0.0137626  0
-0.0132934 0.0137406  0
-0.0186465 0.0136478  0
-0.0240456 0.0134154  0
-0.0294644 0.0129487  0
-0.0348435 0.012127  0
-0.0400784 0.0108059  0
-0.0450092 0.00882378  0
-0.0494099 0.00601443  0
-0.0529821 0.00222673  0
-0.0553563 -0.00264636  0
-0.0561057 -0.00863077  0
-0.0547794 -0.0156284  0
-0.0509586 -0.0233796  0
-0.0443347 -0.0314465  0
-0.0347947 -0.0392328  0
-0.0224941 -0.0460516  0
-0.00788847 -0.0512331  0
0.00829178 -0.0542402  0
0.0251266 -0.0547822  0
0.0416231 -0.0528459  0
0.0568482 -0.0487216  0
0.0700581 -0.0429476  0
0.0807883 -0.0362131  0
0.0888877 -0.0292323  0
0.0944896 -0.0226254  0
0.0979341 -0.01684  0
0.0996716 -0.0121255  0
0.100171 -0.00855238  0
0.0998542 -0.00606284  0
0.0990574 -0.0045328  0
0.0980297 -0.00382756  0
0.0969413 -0.00383155  0
0.0958871 -0.00437792  0
0.094798 -0.00466906  0
0.0929303 -0.000473321  0
0.0870377 0.0239972  0
0.068358 0.0979695  0
0.0271402 0.201303  0
-0.00266589 0.0177514  0
-0.00798092 0.0177938  0
-0.0133269 0.0178421  0
-0.0187861 0.0178408  0
-0.0243852 0.017703  0
-0.0301287 0.0173061  0
-0.0359869 0.0164897  0
-0.0418819 0.015056  0
-0.04767 0.0127752  0
-0.053123 0.00939927  0
-0.057912 0.00468577  0
-0.0615978 -0.00156303  0
-0.0636344 -0.00944573  0
-0.0634005 -0.0188914  0
-0.0602688 -0.0295867  0
-0.0537188 -0.0409308  0
-0.0434772 -0.0520475  0
-0.0296462 -0.0618856  0
-0.0127707 -0.069397  0
0.00618979 -0.0737335  0
0.0259937 -0.0744435  0
0.0452887 -0.0714915  0
0.062805 -0.0653321  0
0.0775529 -0.0568092  0
0.0889624 -0.0470048  0
0.0969314 -0.0370218  0
0.101765 -0.0277832  0
0.104038 -0.0199113  0
0.104435 -0.0137001  0
0.103612 -0.00916486  0
0.102104 -0.00613513  0
0.10029 -0.00435945  0
0.0984007 -0.00359361  0
0.0965584 -0.00364412  0
0.0948088 -0.00427084  0
0.0930589 -0.00444638  0
0.0906038 0.00111742  0
0.0844081 0.0319854  0
0.0661445 0.124415  0
0.0262607 0.253449  0
-0.00263285 0.0217136  0
-0.00790009 0.0218213  0
-0.0132471 0.0219956  0
-0.0187859 0.0221735  0
-0.0245806 0.0222527  0
-0.0306779 0.0220856  0
-0.0370935 0.0214723  0
-0.0437928 0.020156  0
-0.0506662 0.0178249  0
-0.0574999 0.0141243  0
-0.0639448 0.00868256  0
-0.0694874 0.00115616  0
-0.0734325 -0.00869571  0
-0.0749189 -0.0209015  0
-0.0729975 -0.0351424  0
-0.0667955 -0.0506399  0
-0.0557498 -0.0661383  0
-0.0398435 -0.0800444  0
-0.0197419 -0.0907274  0
0.00324443 -0.0968617  0
0.0273735 -0.0977595  0
0.0507347 -0.0933424  0
0.0715311 -0.084304  0
0.0883865 -0.07195  0
0.100577 -0.0579728  0
0.10811 -0.0440639  0
0.111601 -0.0315718  0
0.112018 -0.0213195  0
0.110419 -0.0135963  0
0.107737 -0.0082691  0
0.104659 -0.00495068  0
0.101597 -0.00317202  0
0.0987233 -0.0025228  0
0.0960683 -0.00272193  0
0.0936147 -0.00349416  0
0.0912836 -0.00364633  0
0.0884649 0.0030866  0
0.0822795 0.0398927  0
0.0645559 0.14999  0
0.0256757 0.304133  0
-0.00255988 0.0255811  0
-0.00770119 0.0257843  0
-0.0129757 0.0261486  0
-0.0185295 0.0266076  0
-0.0244732 0.0270515  0
-0.0309089 0.0273144  0
-0.0379166 0.0271611  0
-0.0455298 0.0262739  0
-0.0537021 0.0242467  0
-0.062265 0.0205927  0
-0.0708793 0.0147667  0
-0.0789756 0.00620397  0
-0.0856919 -0.00558932  0
-0.089847 -0.0208738  0
-0.0900075 -0.0394385  0
-0.0847152 -0.0603457  0
-0.0728819 -0.0818191  0
-0.0542362 -0.101423  0
-0.0296072 -0.116587  0
-0.000842842 -0.12526  0
0.029533 -0.126372  0
0.0587471 -0.11981  0
0.0841982 -0.106589  0
0.103885 -0.0887118  0
0.116848 -0.0688692  0
0.123332 -0.0496868  0
0.124509 -0.0331183  0
0.122013 -0.0201959  0
0.117485 -0.0110937  0
0.112258 -0.00536217  0
0.107201 -0.0022238  0
0.102716 -0.000850774  0
0.0988275 -0.000580853  0
0.0953653 -0.00104569  0
0.0921931 -0.0020437  0
0.0893045 -0.00237636  0
0.0863118 0.00512859  0
0.0804847 0.0473636  0
0.0634837 0.174745  0
0.0253421 0.353901  0
-0.00243123 0.0292589  0
-0.00733507 0.0295888  0
-0.012425 0.0302094  0
-0.0178832 0.0310599  0
-0.0238737 0.0320343  0
-0.0305683 0.0329627  0
-0.0381344 0.0335871  0
-0.0467074 0.0335343  0
-0.0563467 0.0322977  0
-0.0669793 0.0292366  0
-0.0783334 0.0235903  0
-0.0898434 0.0144851  0
-0.10051 0.00101062  0
-0.108767 -0.0175639  0
-0.112468 -0.0413888  0
-0.109175 -0.069483  0
-0.0968267 -0.0993663  0
-0.0746134 -0.127237  0
-0.0436008 -0.148916  0
-0.00654122 -0.161256  0
0.0328476 -0.162642  0
0.0705252 -0.152933  0
0.102633 -0.133525  0
0.126107 -0.107436  0
0.139602 -0.0791027  0
0.143862 -0.0526935  0
0.141092 -0.0310161  0
0.134043 -0.0152498  0
0.125254 -0.00521834  0
0.11661 0.000140055  0
0.109176 0.0022702  0
0.103245 0.00257702  0
0.0985121 0.00211945  0
0.0943699 0.00136477  0
0.0903897 0.00020454  0
0.0867166 -0.00055683  0
0.083472 0.00705204  0
0.0782687 0.053976  0
0.0623638 0.198543  0
0.0250584 0.403054  0
-0.00223163 0.0326209  0
-0.00675316 0.0331051  0
-0.0115056 0.034043  0
-0.0167047 0.0353912  0
-0.0225702 0.0370663  0
-0.0293561 0.0389184  0
-0.0373448 0.0406931  0
-0.0468183 0.0419813  0
-0.0579991 0.0421768  0
-0.0709721 0.0404683  0
-0.08563 0.0358753  0
-0.101555 0.0271388  0
-0.117742 0.0127145  0
-0.132242 -0.00900733  0
-0.141919 -0.0390644  0
-0.14269 -0.0768264  0
-0.13064 -0.118919  0
-0.103801 -0.159234  0
-0.0636515 -0.190579  0
-0.0145745 -0.208227  0
0.0378916 -0.210023  0
0.0879156 -0.19575  0
0.129733 -0.167128  0
0.158326 -0.128394  0
0.171602 -0.0874086  0
0.171428 -0.0509655  0
0.161963 -0.0230008  0
0.147824 -0.00456754  0
0.132893 0.00532967  0
0.119771 0.00886922  0
0.109673 0.00858469  0
0.102612 0.00676608  0
0.097654 0.00513309  0
0.0932657 0.00439361  0
0.0882356 0.00369786  0
0.0829459 0.0024241  0
0.0786175 0.00915501  0
0.0738498 0.0593546  0
0.0597427 0.220687  0
0.0243005 0.451168  0
-0.00194859 0.0355134  0
-0.005915 0.0361701  0
-0.0101391 0.037469  0
-0.0148592 0.0393988  0
-0.0203454 0.0419243  0
-0.02694 0.0449547  0
-0.0350691 0.0482879  0
-0.045221 0.0515246  0
-0.0578573 0.0539628  0
-0.0732774 0.0545867  0
-0.0916588 0.0523067  0
-0.113001 0.0454837  0
-0.136653 0.0317183  0
-0.160536 0.00788113  0
-0.180273 -0.0290313  0
-0.18903 -0.0798231  0
-0.179277 -0.140219  0
-0.14638 -0.200162  0
-0.0927462 -0.245927  0
-0.0260376 -0.271157  0
0.0455199 -0.273608  0
0.113752 -0.252912  0
0.170244 -0.210766  0
0.205966 -0.151561  0
0.217108 -0.0911476  0
0.208321 -0.0407533  0
0.187546 -0.00545828  0
0.162448 0.0146423  0
0.13879 0.0222242  0
0.119998 0.0214052  0
0.107254 0.0164073  0
0.100044 0.0107322  0
0.0964632 0.00722372  0
0.0931017 0.0075707  0
0.0865501 0.00962003  0
0.0775581 0.00830043  0
0.0696695 0.0130117  0
0.0638204 0.0636303  0
0.052626 0.239228  0
0.021992 0.496218  0
-0.00157563 0.0377632  0
-0.00479751 0.0385949  0
-0.00827403 0.040266  0
-0.0122444 0.0428133  0
-0.0170077 0.04628  0
-0.0229837 0.0506898  0
-0.0307643 0.0559824  0
-0.0411316 0.0618686  0
-0.0549229 0.0675648  0
-0.0726121 0.0716112  0
-0.0947163 0.0732839  0
-0.122125 0.0707719  0
-0.155326 0.0607979  0
-0.192986 0.0378598  0
-0.229617 -0.00512901  0
-0.253965 -0.0731073  0
-0.251246 -0.161895  0
-0.209884 -0.255232  0
-0.135123 -0.32174  0
-0.0423847 -0.357279  0
0.0568591 -0.360775  0
0.152038 -0.331642  0
0.232125 -0.271101  0
0.278552 -0.17586  0
0.282809 -0.0847305  0
0.257382 -0.0154389  0
0.217649 0.0272559  0
0.175862 0.0463338  0
0.140108 0.0474655  0
0.114548 0.0380387  0
0.0998029 0.024785  0
0.0945392 0.0123517  0
0.0959958 0.00525287  0
0.0971661 0.00925696  0
0.0879103 0.0212646  0
0.0702145 0.0208657  0
0.0531043 0.0229663  0
0.0416517 0.0684977  0
0.0354011 0.249326  0
0.0163527 0.533323  0
-0.00111553 0.0391933  0
-0.00340614 0.0401802  0
-0.00590839 0.0421873  0
-0.00882731 0.0453089  0
-0.0124454 0.0496932  0
-0.0172088 0.055543  0
-0.0238569 0.0630844  0
-0.0336007 0.0724033  0
-0.0480735 0.0828188  0
-0.0675208 0.0910167  0
-0.0924786 0.098462  0
-0.125512 0.103557  0
-0.169693 0.102915  0
-0.226784 0.0880147  0
-0.291919 0.0440006  0
-0.346831 -0.0454591  0
-0.36118 -0.180396  0
-0.304447 -0.337309  0
-0.193254 -0.4281  0
-0.0640945 -0.475301  0
0.0717952 -0.48037  0
0.204678 -0.442591  0
0.325863 -0.363906  0
0.39197 -0.19807  0
0.379231 -0.0565168  0
0.321895 0.0366331  0
0.250722 0.0836151  0
0.184131 0.0958789  0
0.132256 0.0830761  0
0.0995685 0.058204  0
0.084567 0.0318945  0
0.084654 0.00794795  0
0.0987585 -0.0083743  0
0.112576 0.00542793  0
0.0944643 0.0499909  0
0.0554549 0.0463711  0
0.0196986 0.047853  0
-0.00649315 0.0787802  0
-0.00205857 0.238383  0
0.00517069 0.553608  0
-0.000590311 0.0396515  0
-0.00180695 0.0407488  0
-0.00315064 0.042999  0
-0.00474842 0.046548  0
-0.00679177 0.0516492  0
-0.00962555 0.0587175  0
-0.0139618 0.0684273  0
-0.0214979 0.0818729  0
-0.0365468 0.100403  0
-0.0576006 0.111463  0
-0.0835424 0.126442  0
-0.1201 0.142693  0
-0.174777 0.16016  0
-0.25749 0.168098  0
-0.370132 0.139218  0
-0.482164 0.0237889  0
-0.524938 -0.194999  0
-0.429457 -0.477401  0
-0.255615 -0.575522  0
-0.0864209 -0.62871  0
0.0841569 -0.635906  0
0.25872 -0.596978  0
0.447339 -0.521798  0
0.557943 -0.219363  0
0.519314 0.0136713  0
0.405592 0.135032  0
0.284217 0.175294  0
0.181837 0.170702  0
0.109012 0.130486  0
0.0709974 0.0790313  0
0.0593399 0.0352599  0
0.0676653 -0.00629591  0
0.106304 -0.0493381  0
0.136063 0.000968521  0
0.0805489 0.126224  0
0.00376074 0.0834643  0
-0.0465258 0.0943325  0
-0.0908214 0.100318  0
-0.0659689 0.185087  0
-0.0131545 0.544387  0
-0.000130759 0.0397521  0
-0.000401597 0.0408996  0
-0.00070255 0.0432615  0
-0.00106067 0.0470099  0
-0.00151558 0.0524541  0
-0.00213316 0.0601324  0
-0.00305397 0.0710376  0
-0.00536122 0.087874  0
-0.0302207 0.133077  0
-0.0671413 0.13491  0
-0.100296 0.15962  0
-0.143485 0.186791  0
-0.207307 0.232093  0
-0.31498 0.284083  0
-0.491148 0.309575  0
-0.678945 0.150789  0
-0.715574 -0.24507  0
-0.534053 -0.706807  0
-0.293138 -0.763349  0
-0.10017 -0.805521  0
0.0827828 -0.815101  0
0.281651 -0.793689  0
0.529219 -0.763745  0
0.724408 -0.28568  0
0.703861 0.136693  0
0.524089 0.303038  0
0.338225 0.312061  0
0.187238 0.284838  0
0.0778223 0.196743  0
0.0341612 0.0932188  0
0.0319761 0.0336829  0
0.0405904 -0.0228904  0
0.0472128 -0.0792358  0
0.0142717 0.0910443  0
-0.0186693 0.181596  0
-0.0338571 0.118833  0
-0.0725158 0.146675  0
-0.142725 0.161246  0
-0.115275 0.0700019  0
-0.0205433 0.509453  0
-0.000709163 0.0199414  0
-0.00217135 0.0205198  0
-0.00378628 0.0217112  0
-0.00570534 0.0236036  0
-0.00815818 0.0263559  0
-0.0115766 0.0302462  0
-0.017618 0.0357993  0
-0.0476572 0.0448102  0
-0.371262 0.152145  0
-0.668847 0.148099  0
-0.68093 0.190434  0
-0.708712 0.225713  0
-0.744256 0.291303  0
-0.793209 0.380265  0
-0.870715 0.465834  0
-0.916459 0.226217  0
-0.777066 -0.425736  0
-0.516265 -0.970937  0
-0.290075 -0.968798  0
-0.103718 -0.98187  0
0.0647107 -0.992606  0
0.248964 -1.00178  0
0.448769 -1.0055  0
0.703118 -0.495931  0
0.878259 0.189885  0
0.859131 0.446898  0
0.799984 0.41198  0
0.780506 0.354154  0
0.478838 0.29519  0
0.136429 0.0486978  0
0.0954304 0.0158455  0
0.0960539 -0.0147564  0
0.0720743 -0.0396179  0
0.0142717 0.090798  0
0.00511817 0.090798  0
-0.028132 0.0670105  0
-0.109498 0.085073  0
-0.146074 0.0607244  0
-0.0903017 -0.0728248  0
-0.011141 0.476532  0
0 0  0
0 0  0
0 0  0
0 0  0
0 0  0
0 0  0
0 0  0
0 0  0
-0.334423 0.0740496  0
-0.696056 0.0740496  0
-0.727586 0.101259  0
-0.763028 0.120705  0
-0.828236 0.155575  0
-0.894751 0.204686  0
-0.667977 0.368588  0
-0.408778 0.222943  0
-0.409202 -0.562667  0
-0.366153 -1.13971  0
-0.244768 -1.15007  0
-0.0992773 -1.13491  0
0.0320891 -1.14183  0
0.153415 -1.1606  0
0.177932 -1.07284  0
0.148005 -0.65424  0
0.151097 0.168728  0
0.512834 0.327647  0
0.866191 0.215729  0
0.819158 0.177077  0
0.390253 0.177077  0
0 0  0
0 0  0
0 0  0
0 0  0
0 0  0
0 0  0
0 0  0
0 0  0
-0.0520063 -0.11369  0
-0.104013 -0.140845  0
-0.0520063 0.412767  0
0 0  0
0 0  0
0 0  0
0 0  0
0 0  0
0 0  0
0 0  0
0 0  0
0 0  0
0 0  0
0 0  0
0 0  0
0 0  0
0 0  0
-0.204389 0.111472  0
-0.0161845 0.111472  0
0.0758745 -0.873022  0
-0.22466 -1.1838  0
-0.181972 -1.27129  0
-0.0933545 -1.24904  0
-0.0145254 -1.23913  0
0.0183737 -1.21876  0
-0.109602 -1.12929  0
-0.456271 -0.328666  0
-0.261933 0.0843639  0
0.0755486 0.0843639  0
0 0  0
0 0  0
0 0  0
0 0  0
0 0  0
0 0  0
0 0  0
0 0  0
0 0  0
0 0  0
0 0  0
-0.0520063 -0.0704223  0
-0.354815 -0.0704223  0
-0.302809 0.18038  0
0 0  0
0 0  0
0 0  0
0 0  0
0 0  0
0 0  0
0 0  0
0 0  0
0 0  0
0 0  0
0 0  0
0 0  0
0 0  0
0 0  0
0 0  0
0 0  0
-0.11233 -0.5919  0
-0.15957 -0.5919  0
-0.126387 -0.656989  0
-0.114329 -0.647485  0
-0.0526315 -0.636015  0
-0.00826287 -0.609379  0
0.00918683 -0.609379  0
0 0  0
0 0  0
0 0  0
0 0  0
0 0  0
0 0  0
0 0  0
0 0  0
0 0  0
0 0  0
0 0  0
0 0  0
0 0  0
0 0  0
0 0  0
0 0  0
0 0  0
0 0  0
0 0  0
0 0  0
0 0  0
0 0  0
0 0  0
0 0  0
0 0  0
0 0  0
0 0  0
0 0  0
0 0  0
0 0  0
0 0  0
0 0  0
0 0  0
0 0  0
0 0  0
0 0  0
0 0  0
0 0  0
0 0  0
0 0  0
0 0  0
0 0  0
0 0  0
0 0  0
0 0  0
0 0  0
0 0  0
0 0  0
0 0  0
0 0  0
0 0  0
0 0  0
0 0  0
0 0  0
0 0  0
0 0  0
0 0  0
0 0  0
0 0  0
0 0  0
0 0  0
0 0  0
0 0  0
0 0  0
0 0  0
0 0  0
0 0  0
0 0  0
0 0  0
0 0  0
0 0  0
0 0  0
0 0  0
0 0  0
0 0  0
0 0  0
0 0  0
0 0  0
0 0  0
0 0  0
0 0  0
0 0  0
0 0  0
0 0  0
0 0  0
0 0  0
0 0  0
0 0  0
0 0  0
0 0  0
0 0  0
0 0  0
0 0  0
0 0  0
0 0  0
0 0  0
0 0  0
0 0  0
0 0  0
0 0  0
0 0  0
0 0  0
0 0  0
0 0  0
0 0  0
0 0  0
0 0  0
0 0  0
0 0  0
0 0  0
0 0  0
0 0  0
0 0  0
0 0  0
0 0  0
0 0  0
0 0  0
0 0  0
0 0  0
0 0  0
0 0  0
0 0  0
0 0  0
0 0  0
0 0  0
0 0  0
0 0  0
0 0  0
0 0  0
0 0  0
0 0  0
0 0  0
0 0  0
0 0  0
0 0  0
0 0  0
0 0  0
0 0  0
0 0  0
0 0  0
0 0  0
0 0  0
0 0  0
0 0  0
0 0  0
0 0  0
0 0  0
0 0  0
0 0  0
0 0  0
0 0  0
0 0  0
0 0  0
0 0  0
0 0  0
0 0  0
0 0  0
0 0  0
0 0  0
0 0  0
0 0  0
0 0  0
0 0  0
0 0  0
0 0  0
0 0  0
0 0  0
0 0  0
0 0  0
0 0  0
0 0  0
0 0  0
0 0  0
0 0  0
0 0  0
0 0  0
0 0  0
0 0  0
0 0  0
0 0  0
0 0  0
0 0  0
0 0  0
0 0  0
0 0  0
0 0  0
0 0  0
0 0  0
0 0  0
0 0  0
0 0  0
0 0  0
0 0  0
0 0  0
0 0  0
0 0  0
0 0  0
0 0  0
0 0  0
0 0  0
0 0  0
0 0  0
0 0  0
0 0  0
0 0  0
0 0  0
0 0  0
0 0  0
0 0  0
0 0  0
0 0  0
0 0  0
0 0  0
0 0  0
0 0  0
0 0  0
0 0  0
0 0  0
0 0  0
0 0  0
0 0  0
0 0  0
0 0  0
0 0  0
0 0  0
0 0  0
0 0  0
0 0  0
0 0  0
0 0  0
0 0  0
0 0  0
0 0  0
0 0  0
0 0  0
0 0  0
0 0  0
0 0  0
0 0  0
0 0  0
0 0  0
0 0  0
0 0  0
0 0  0
0 0  0
0 0  0
0 0  0
0 0  0
0 0  0
0 0  0
0 0  0
0 0  0
0 0  0
0 0  0
0 0  0
0 0  0
0 0  0
0 0  0
0 0  0
0 0  0
0 0  0
0 0  0
0 0  0
0 0  0
0 0  0
0 0  0
0 0  0
0 0  0
0 0  0
0 0  0
0 0  0
0 0  0
0 0  0
0 0  0
0 0  0
0 0  0
0 0  0
0 0  0
0 0  0
0 0  0
0 0  0
0 0  0
0 0  0
0 0  0
0 0  0
0 0  0
0 0  0
0 0  0
0 0  0
0 0  0
0 0  0
0 0  0
0 0  0
0 0  0
0 0  0
0 0  0
0 0  0
0 0  0
0 0  0
0 0  0
0 0  0
0 0  0
0 0  0
0 0  0
0 0  0
0 0  0
0 0  0
0 0  0
0 0  0
0 0  0
0 0  0
0 0  0
0 0  0
0 0  0
0 0  0
0 0  0
0 0  0
0 0  0
0 0  0
0 0  0
0 0  0
0 0  0
0 0  0
0 0  0
0 0  0
0 0  0
0 0  0
0 0  0
0 0  0
0 0  0
0 0  0
0 0  0
0 0  0
0 0  0
0 0  0
0 0  0
0 0  0
0 0  0
0 0  0
0 0  0
0 0  0
0 0  0
0 0  0
0 0  0
0 0  0
0 0  0
0 0  0
0 0  0
0 0  0
0 0  0
0 0  0
0 0  0
0 0  0
0 0  0
0 0  0
0 0  0
0 0  0
0 0  0
0 0  0
0 0  0
0 0  0
0 0  0
0 0  0
0 0  0
0 0  0
0 0  0
0 0  0
0 0  0
0 0  0
0 0  0
0 0  0
0 0  0
0 0  0
0 0  0
0 0  0
0 0  0
0 0  0
0 0  0
0 0  0
0 0  0
0 0  0
0 0  0
0 0  0
0 0  0
0 0  0
0 0  0
0 0  0
0 0  0
0 0  0
0 0  0
0 0  0
0 0  0
0 0  0
0 0  0
0 0  0
0 0  0
0 0  0
0 0  0
0 0  0
0 0  0
0 0  0
0 0  0
0 0  0
0 0  0
0 0  0
0 0  0
0 0  0
0 0  0
0 0  0
0 0  0
0 0  0
0 0  0
0 0  0
0 0  0
0 0  0
0 0  0
0 0  0
0 0  0
0 0  0
0 0  0
0 0  0
0 0  0
0 0  0
0 0  0
0 0  0
0 0  0
0 0  0
0 0  0
0 0  0
0 0  0
0 0  0
0 0  0
0 0  0
0 0  0
0 0  0
0 0  0
0 0  0
0 0  0
0 0  0
0 0  0
0 0  0
0 0  0
0 0  0
0 0  0
0 0  0
0 0  0
0 0  0
0 0  0
0 0  0
0 0  0
0 0  0
0 0  0
0 0  0
0 0  0
0 0  0
0 0  0
0 0  0
0 0  0
0 0  0
0 0  0
0 0  0
0 0  0
0 0  0
0 0  0
0 0  0
0 0  0
0 0  0
0 0  0
0 0  0
0 0  0
0 0  0
0 0  0
0 0  0
0 0  0
0 0  0
0 0  0
0 0  0
0 0  0
0 0  0
0 0  0
0 0  0
0 0  0
0 0  0
0 0  0
0 0  0
0 0  0
0 0  0
0 0  0
0 0  0
0 0  0
0 0  0
0 0  0
0 0  0
0 0  0
0 0  0
0 0  0
0 0  0

SCALARS pressure double 1
LOOKUP_TABLE default
2.98579
2.98831
2.99348
3.00125
3.01154
3.02424
3.03918
3.05613
3.07481
3.09485
3.11581
3.13719
3.15839
3.17877
3.19764
3.21429
3.22806
3.23831
3.24455
3.2465
3.24397
3.23697
3.22576
3.2108
3.19268
3.17213
3.14995
3.12694
3.10388
3.08151
3.06047
3.0413
3.02445
3.01025
2.99893
2.99067
2.98555
2.98367
2.98495
2.98811
2.78143
2.78397
2.78919
2.79704
2.80746
2.82033
2.83549
2.85274
2.87179
2.89227
2.91375
2.9357
2.95754
2.97857
2.9981
3.01537
3.02967
3.04035
3.04687
3.04894
3.04634
3.03911
3.02751
3.01201
2.99324
2.97197
2.94903
2.92527
2.90151
2.87851
2.85693
2.83733
2.82014
2.8057
2.79423
2.78586
2.78067
2.77871
2.77995
2.78312
2.5728
2.5754
2.58071
2.58872
2.59937
2.61257
2.62819
2.64602
2.6658
2.68717
2.70969
2.73282
2.75594
2.77832
2.7992
2.81774
2.83316
2.84472
2.85183
2.85414
2.85144
2.84373
2.83132
2.8147
2.79459
2.77182
2.74733
2.72204
2.69685
2.67257
2.64991
2.62943
2.61158
2.59668
2.58492
2.57638
2.57106
2.56897
2.57004
2.57298
2.35991
2.36256
2.36801
2.37623
2.3872
2.40087
2.41714
2.43583
2.45669
2.4794
2.50349
2.52843
2.55352
2.578
2.60098
2.62154
2.63872
2.65168
2.65971
2.6624
2.65955
2.65111
2.63742
2.61906
2.59684
2.57174
2.54482
2.51716
2.48975
2.46351
2.43919
2.4174
2.39859
2.38304
2.3709
2.36217
2.35676
2.3546
2.35551
2.35823
2.14268
2.14541
2.15099
2.15945
2.17081
2.18505
2.20213
2.22192
2.24422
2.26871
2.29493
2.32231
2.35014
2.37754
2.4035
2.42691
2.44662
2.46158
2.47094
2.47417
2.47111
2.46166
2.44619
2.42538
2.40018
2.37177
2.34144
2.31044
2.27996
2.25102
2.22445
2.20091
2.18083
2.1645
2.15198
2.14315
2.13779
2.13569
2.13659
2.1392
1.92108
1.92386
1.92956
1.93825
1.95
1.96486
1.98287
2.00397
2.02803
2.05472
2.08363
2.11414
2.14553
2.17679
2.20676
2.23404
2.2572
2.27489
2.28604
2.29
2.2867
2.27593
2.2581
2.234
2.2048
2.17195
2.13703
2.10161
2.06708
2.03464
2.0052
1.97945
1.95786
1.94067
1.92788
1.91917
1.91413
1.91236
1.91347
1.91613
1.69505
1.69786
1.70363
1.71247
1.72454
1.73999
1.75896
1.78152
1.80761
1.83695
1.8691
1.90346
1.93927
1.97548
2.01068
2.04311
2.07086
2.09216
2.10565
2.11054
2.10695
2.09455
2.07373
2.04538
2.01093
1.97224
1.93135
1.89021
1.85055
1.81373
1.78075
1.75234
1.72899
1.71097
1.6982
1.69007
1.68579
1.68471
1.68635
1.68928
1.46461
1.46738
1.4731
1.48195
1.49416
1.51004
1.5299
1.55397
1.58232
1.61472
1.65066
1.68956
1.73069
1.77307
1.815
1.8542
1.88802
1.91401
1.93042
1.93641
1.93246
1.91816
1.89369
1.85996
1.81875
1.77252
1.72395
1.67558
1.62952
1.5874
1.55023
1.51868
1.49329
1.47454
1.4624
1.45565
1.45285
1.45296
1.4555
1.45903
1.22979
1.23244
1.23794
1.24654
1.25858
1.27457
1.29505
1.32054
1.35134
1.38722
1.42747
1.47148
1.51877
1.56854
1.61907
1.66718
1.709
1.74094
1.76073
1.76782
1.76341
1.74708
1.71845
1.6781
1.62826
1.57233
1.51403
1.45663
1.40282
1.35451
1.31257
1.27736
1.24945
1.23002
1.21971
1.21583
1.21565
1.21765
1.2216
1.22623
0.990742
0.993159
0.998196
1.00616
1.01754
1.03304
1.05358
1.08017
1.11355
1.15352
1.19851
1.2479
1.30182
1.36009
1.42138
1.48127
1.53366
1.57296
1.59612
1.60383
1.5988
1.58067
1.54788
1.49959
1.43882
1.37055
1.30009
1.23181
1.16875
1.11355
1.0666
1.0272
0.995655
0.9749
0.969073
0.97085
0.975103
0.979951
0.986216
0.992863
0.747741
0.74977
0.754029
0.760862
0.770851
0.784921
0.804448
0.831292
0.867356
0.912801
0.962908
1.01714
1.0772
1.1446
1.21848
1.29413
1.36054
1.40854
1.43375
1.44074
1.43473
1.4156
1.37987
1.32244
1.24805
1.16438
1.07992
0.998782
0.924399
0.862394
0.81136
0.767639
0.729583
0.703368
0.709255
0.721819
0.732982
0.742077
0.752943
0.763313
0.501197
0.502679
0.50581
0.510908
0.518554
0.529767
0.546348
0.571421
0.609824
0.665205
0.720541
0.777198
0.840663
0.915938
1.00409
1.09904
1.18349
1.24132
1.26496
1.26912
1.26142
1.24217
1.2061
1.13833
1.04833
0.948172
0.849584
0.754089
0.664255
0.597755
0.546831
0.500726
0.449936
0.398046
0.44051
0.472143
0.491954
0.506959
0.529457
0.54613
0.251689
0.252478
0.254155
0.25692
0.261164
0.26766
0.278058
0.296327
0.33315
0.41513
0.473688
0.526047
0.585452
0.662775
0.763604
0.877783
0.9808
1.05002
1.07093
1.07208
1.06155
1.03986
0.999513
0.919135
0.818061
0.709787
0.602202
0.494613
0.375023
0.313792
0.274817
0.236096
0.167826
-0.00482035
0.175632
0.230288
0.253645
0.275908
0.325639
0.353269
6.1978e-05
6.64186e-05
7.62481e-05
9.33991e-05
0.000121784
0.000169412
0.000257543
0.000655815
0.00889107
0.185809
0.229674
0.262632
0.30192
0.36368
0.461293
0.591864
0.697089
0.786535
0.827242
0.8328
0.818484
0.783716
0.707399
0.604519
0.516819
0.419345
0.325524
0.227989
0.0167496
0.00171412
-0.00102709
-0.00323613
-0.0136629
0
0.0352201
0.00702243
0.0114814
0.0228384
0.151583
0.192261
0
0
0
0
0
0
0
0
0
0.0956355
0.00483743
0.00794948
0.0099132
0.01413
0.0224565
0.181148
0.282867
0.437156
0.531339
0.553102
0.53629
0.478028
0.336273
0.173273
0.0951245
0.0194563
0.00774994
0.0713697
0
0
0
0
0
0
0
0
0
0
0.0334471
0.0659147
0
0
0
0
0
0
0
0
0
0
0
0
0
0
0
-0.0323503
-7.77675e-05
0.109353
0.229484
0.25967
0.246811
0.183935
0.0132475
0
0.0136052
0
0
0
0
0
0
0
0
0
0
0
0
0
-0.00861662
-0.02609
0
0
0
0
0
0
0
0
0
0
0
0
0
0
0
0
0
-0.160836
-0.0218039
-0.0233411
-0.0170726
-0.0141442
0
0
0
0
0
0
0
0
0
0
0
0
0
0
0
0
0
0
0
0
0
0
0
0
0
0
0
0
0
0
0
0
0
0
0
0
0
0
0
0
0
0
0
0
0
0
0
0
0
0
0
0
0
0
0
0
0
0
0
0
0
0
0
0
0
0
0
0
0
0
0
0
0
0
0
0
0
0
0
0
0
0
0
0
0
0
0
0
0
0
0
0
0
0
0
0
0
0
0
0
0
0
0
0
0
0
0
0
0
0
0
0
0
0
0
0
0
0
0
0
0
0
0
0
0
0
0
0
0
0
0
0
0
0
0
0
0
0
0
0
0
0
0
0
0
0
0
0
0
0
0
0
0
0
0
0
0
0
0
0
0
0
0
0
0
0
0
0
0
0
0
0
0
0
0
0
0
0
0
0
0
0
0
0
0
0
0
0
0
0
0
0
0
0
0
0
0
0
0
0
0
0
0
0
0
0
0
0
0
0
0
0
0
0
0
0
0
0
0
0
0
0
0
0
0
0
0
0
0
0
0
0
0
0
0
0
0
0
0
0
0
0
0
0
0
0
0
0
0
0
0
0
0
0
0
0
0
0
0
0
0
0
0
0
0
0
0
0
0
0
0
0
0
0
0
0
0
0
0
0
0
0
0
0
0
0
0
0
0
0
0
0
0
0
0
0
0
0
0
0
0
0
0
0
0
0
0
0
0
0
0
0
0
0
0
0
0
0
0
0
0
0
0
0
0
0
0
0
0
0
0
0
0
0
0
0
0
0
0
0
0
0
0
0
0
0
0
0
0
0
0
0
0
0
0
0
0
0
0
0
0
0
0
0
0
0
0
0
0
0
0
0
0
0
0
0
0
0
0
0
0
0
0
0
0
0
0
0
0
0
0
0
0
0
0
0
0
0
0
0
0
0
0
0
0
0
0
0
0
0
0
0
0
0
0
0
0
0
0
0
0
0
0
0
0
0
0
0
0
0
0
0
0
0
0
0
0
0
0
0
0
0
0
0
0
0
0
0
0
0
0
0
0
0
0
0
0
0
0
0
0
0
0
0
0
0
0
0
0
0
0
0
0
0
0
0
0
0
0
0
0
0
0
0
0
0
0
0
0
0
0
0
0
0
0
0
0
0
0
0
0
0
0
0
0
0
0
0
0
0
0
0
0
0
0
0
0
0
0
0
0
0
0
0
0
0
0
0
0
0
0
0
0
0
0
0
0
0
SCALARS rhs double 1
LOOKUP_TABLE default
-5.16704
-5.1093
-5.10771
-5.10664
-5.10574
-5.10496
-5.10428
-5.10369
-5.10317
-5.10274
-5.10242
-5.1023
-5.10247
-5.10303
-5.10404
-5.10545
-5.10711
-5.10875
-5.10828
-5.11025
-5.11034
-5.10932
-5.10756
-5.10533
-5.10296
-5.10073
-5.09882
-5.0973
-5.09614
-5.09526
-5.09461
-5.09411
-5.09372
-5.09343
-5.09323
-5.09306
-5.09283
-5.09599
-5.12977
-5.25521
-0.107747
-0.0532391
-0.0527251
-0.0525695
-0.052425
-0.0522792
-0.052121
-0.0519457
-0.0517608
-0.0515935
-0.0515239
-0.0516285
-0.0519552
-0.0526364
-0.0537297
-0.0552083
-0.0569305
-0.0586422
-0.0582721
-0.0602884
-0.0607964
-0.0601222
-0.0587616
-0.0569783
-0.0550797
-0.0533288
-0.0518884
-0.0508122
-0.0500715
-0.0495949
-0.0493034
-0.049132
-0.0490368
-0.0489945
-0.0489904
-0.0489335
-0.04857
-0.050793
-0.0857886
-0.218873
-0.103389
-0.0515033
-0.0510462
-0.0509343
-0.0508375
-0.0507437
-0.0506429
-0.0505308
-0.0504154
-0.0503254
-0.0503294
-0.0506142
-0.0510817
-0.0519363
-0.0532414
-0.0549679
-0.0569573
-0.0589225
-0.0587106
-0.060479
-0.0613547
-0.0605421
-0.0589354
-0.0568409
-0.0546163
-0.0525674
-0.0508829
-0.049625
-0.0487603
-0.0482061
-0.0478712
-0.0476792
-0.0475787
-0.0475401
-0.0475371
-0.0474215
-0.046729
-0.047528
-0.0787214
-0.199208
-0.0987269
-0.0499925
-0.0495978
-0.0495361
-0.049498
-0.0494733
-0.0494528
-0.0494337
-0.049426
-0.0494608
-0.0495473
-0.0501642
-0.0508808
-0.0520458
-0.0537308
-0.0559004
-0.0583653
-0.060779
-0.0609542
-0.0620386
-0.0636927
-0.0626317
-0.060586
-0.0579364
-0.0551303
-0.0525493
-0.0504292
-0.0488476
-0.0477633
-0.0470732
-0.0466626
-0.0464348
-0.046323
-0.0462873
-0.046287
-0.0461269
-0.0451916
-0.0451734
-0.0735966
-0.184396
-0.0934577
-0.0483652
-0.0480437
-0.0480442
-0.0480817
-0.0481491
-0.0482407
-0.0483573
-0.0485131
-0.0487459
-0.0491269
-0.0499023
-0.0512853
-0.0530048
-0.0553693
-0.058327
-0.0616312
-0.0648309
-0.0658439
-0.065409
-0.0685872
-0.0671079
-0.064314
-0.0607101
-0.0569001
-0.0533998
-0.0505258
-0.0483835
-0.0469197
-0.045997
-0.0454585
-0.0451698
-0.0450359
-0.0449985
-0.0449987
-0.0448002
-0.0436815
-0.0435056
-0.070281
-0.174096
-0.0876407
-0.0466306
-0.0463921
-0.0464655
-0.0465958
-0.0467817
-0.0470246
-0.0473332
-0.0477319
-0.0482727
-0.0490494
-0.0499525
-0.0527075
-0.0554322
-0.0590382
-0.0634303
-0.0682487
-0.0728509
-0.0754448
-0.0721462
-0.0781046
-0.0759352
-0.0718726
-0.0666137
-0.061047
-0.0559277
-0.0517168
-0.0485747
-0.046433
-0.045095
-0.0443277
-0.0439271
-0.0437473
-0.0436983
-0.043693
-0.04343
-0.0422082
-0.0422128
-0.0685177
-0.167787
-0.0813389
-0.0447974
-0.0446493
-0.0448053
-0.0450458
-0.0453801
-0.0458231
-0.0464001
-0.0471561
-0.048173
-0.049591
-0.0512518
-0.0553864
-0.0604465
-0.0664174
-0.0735395
-0.0812033
-0.0883894
-0.093828
-0.0856404
-0.0960545
-0.0930663
-0.0868704
-0.0786644
-0.0699068
-0.0618071
-0.0551078
-0.0500928
-0.0466777
-0.0445576
-0.0433187
-0.0427042
-0.0424585
-0.0423961
-0.0424019
-0.0420215
-0.0403266
-0.0398552
-0.0660115
-0.163687
-0.0746207
-0.0428767
-0.0428233
-0.0430689
-0.0434361
-0.0439525
-0.0446574
-0.0456075
-0.0468883
-0.0486372
-0.0510889
-0.0546163
-0.0581692
-0.0701359
-0.0808655
-0.0935029
-0.10681
-0.118956
-0.127673
-0.116072
-0.128498
-0.126767
-0.117157
-0.103507
-0.0886278
-0.0746855
-0.0630575
-0.0543387
-0.0477893
-0.0438271
-0.0422547
-0.0414426
-0.0410381
-0.0409786
-0.0411385
-0.0407202
-0.0373292
-0.0327567
-0.0558568
-0.156328
-0.0675646
-0.0408849
-0.040927
-0.0412655
-0.0417735
-0.0425091
-0.0435553
-0.0450258
-0.047076
-0.049941
-0.0540513
-0.0601319
-0.0679846
-0.0841801
-0.109505
-0.134178
-0.159462
-0.18149
-0.19524
-0.176854
-0.19182
-0.194828
-0.181088
-0.156949
-0.129374
-0.102951
-0.0808284
-0.0597571
-0.0498802
-0.0455294
-0.0423155
-0.0404758
-0.039624
-0.0395304
-0.0400255
-0.0395697
-0.0324526
-0.0137676
-0.0229406
-0.133208
-0.0602641
-0.0388496
-0.0389834
-0.0394127
-0.0400713
-0.041067
-0.0425596
-0.0447642
-0.0479454
-0.0524818
-0.0592096
-0.069648
-0.0862532
-0.103487
-0.168531
-0.222294
-0.275655
-0.317942
-0.334245
-0.29981
-0.317774
-0.336056
-0.326266
-0.280899
-0.223345
-0.166806
-0.102865
-0.0766237
-0.0613571
-0.0502109
-0.0436156
-0.0398187
-0.0380164
-0.038038
-0.0407469
-0.0406913
-0.0259445
0.0293355
0.060534
-0.0724611
-0.0528311
-0.0368131
-0.0370307
-0.0375424
-0.0383546
-0.039654
-0.0417436
-0.0450306
-0.0498705
-0.0567655
-0.067488
-0.0854031
-0.116502
-0.169348
-0.244974
-0.432437
-0.560528
-0.642886
-0.618376
-0.540592
-0.561336
-0.626066
-0.688639
-0.599008
-0.457357