# vtk DataFile Version 4.0
Nusif Fluid VTK output
ASCII
DATASET STRUCTURED_POINTS
DIMENSIONS 40 30 1
ORIGIN 0 0 0 
SPACING 0.2 0.2 1
POINT_DATA 1200 

VECTORS velocity double
0.00558356 -0.00662638  0
0.0167553 -0.00656626  0
0.0278119 -0.00644463  0
0.0385614 -0.00625503  0
0.0488583 -0.00598806  0
0.0585362 -0.00563234  0
0.0674059 -0.00517612  0
0.0752562 -0.00460949  0
0.0818606 -0.00392696  0
0.0869884 -0.00312992  0
0.0904213 -0.00222928  0
0.0919735 -0.0012468  0
0.0915131 -0.000214429  0
0.0889808 0.000826791  0
0.0844049 0.00183072  0
0.0779056 0.00275144  0
0.0696892 0.00354854  0
0.0600339 0.00419085  0
0.0492702 0.00465718  0
0.0377631 0.00493414  0
0.0258994 0.00501348  0
0.0140785 0.00489062  0
0.00270616 0.00456408  0
-0.00781577 0.00403914  0
-0.017103 0.00332818  0
-0.0248096 0.00245702  0
-0.0306535 0.00146388  0
-0.0344378 0.000395953  0
-0.0360641 -0.000695944  0
-0.0355333 -0.00176283  0
-0.0329382 -0.00276185  0
-0.0284507 -0.00365691  0
-0.0223151 -0.00441148  0
-0.0148706 -0.00496718  0
-0.00663804 -0.00520085  0
0.00150616 -0.00487987  0
0.00815635 -0.0037077  0
0.011492 -0.00156593  0
0.010041 0.00107847  0
0.00399662 0.0030273  0
0.00564404 -0.0198737  0
0.0169379 -0.0196983  0
0.0281245 -0.0193415  0
0.0390198 -0.0187837  0
0.0494833 -0.0179956  0
0.0593508 -0.0169416  0
0.0684316 -0.0155842  0
0.0765086 -0.0138912  0
0.0833435 -0.0118432  0
0.0886892 -0.0094423  0
0.0923077 -0.00672004  0
0.0939918 -0.00374122  0
0.09359 -0.000604031  0
0.0910297 0.00256473  0
0.0863341 0.00562169  0
0.0796289 0.00842377  0
0.0711349 0.0108462  0
0.0611488 0.0127947  0
0.0500184 0.0142076  0
0.0381221 0.015047  0
0.025856 0.0152898  0
0.0136271 0.0149224  0
0.00185066 0.0139382  0
-0.00905687 0.0123501  0
-0.0186898 0.0101914  0
-0.0266775 0.00754028  0
-0.0327172 0.00451434  0
-0.0365998 0.00126053  0
-0.0382253 -0.0020629  0
-0.037604 -0.00530416  0
-0.0348469 -0.00833103  0
-0.0301495 -0.0110329  0
-0.0237836 -0.0132993  0
-0.0161156 -0.0149557  0
-0.00768924 -0.0156366  0
0.000608648 -0.0146528  0
0.00738212 -0.011126  0
0.0108463 -0.00471571  0
0.00958506 0.00317177  0
0.00382756 0.00896711  0
0.00575946 -0.033227  0
0.0172883 -0.0329481  0
0.0287278 -0.032378  0
0.0399094 -0.0314827  0
0.0507031 -0.0302105  0
0.0609507 -0.0284969  0
0.0704597 -0.0262723  0
0.079001 -0.0234735  0
0.0863133 -0.0200588  0
0.0921155 -0.0160241  0
0.0961269 -0.0114166  0
0.0980947 -0.00634414  0
0.0978255 -0.000976853  0
0.0952163 0.00446093  0
0.0902794 0.00971209  0
0.0831528 0.0145195  0
0.074089 0.0186626  0
0.0634252 0.0219825  0
0.0515463 0.0243831  0
0.0388576 0.0258101  0
0.0257729 0.0262306  0
0.0127132 0.0256227  0
0.00010972 0.0239698  0
-0.0115908 0.0212778  0
-0.021936 0.0175922  0
-0.030503 0.0130437  0
-0.0369434 0.00783963  0
-0.0410214 0.00224353  0
-0.0426344 -0.00346064  0
-0.0418135 -0.00900275  0
-0.0387078 -0.0141503  0
-0.0335628 -0.0187118  0
-0.0267047 -0.0225009  0
-0.0185543 -0.0252296  0
-0.00969996 -0.0263009  0
-0.00105046 -0.0245938  0
0.00600981 -0.0186769  0
0.00975242 -0.00802983  0
0.00884516 0.0049962  0
0.0035608 0.0145265  0
0.00592315 -0.046851  0
0.0177868 -0.0464859  0
0.0295895 -0.0457374  0
0.0411875 -0.0445561  0
0.0524694 -0.0428643  0
0.0632896 -0.0405609  0
0.0734558 -0.0375319  0
0.0827227 -0.0336689  0
0.0907937 -0.0288921  0
0.0973332 -0.0231767  0
0.101991 -0.0165766  0
0.104439 -0.00924185  0
0.104411 -0.00142326  0
0.10175 0.00653593  0
0.0964505 0.0142332  0
0.08867 0.021265  0
0.0787155 0.0272949  0
0.0669917 0.0320971  0
0.0539437 0.0355546  0
0.0400181 0.0376117  0
0.0256557 0.0382343  0
0.0112974 0.0373947  0
-0.00260322 0.0350589  0
-0.0155526 0.0311948  0
-0.0270211 0.0258443  0
-0.0364975 0.0191896  0
-0.0435574 0.0115477  0
-0.0479213 0.00333016  0
-0.0494842 -0.00501951  0
-0.0483131 -0.013085  0
-0.0446211 -0.0205157  0
-0.0387332 -0.02703  0
-0.0310617 -0.0323637  0
-0.0221097 -0.0361213  0
-0.0125338 -0.0374921  0
-0.00328209 -0.0349569  0
0.0042657 -0.0265752  0
0.00844054 -0.0117024  0
0.00799879 0.00636437  0
0.00326374 0.0195244  0
0.00612461 -0.0608307  0
0.0184013 -0.0604036  0
0.0306565 -0.059527  0
0.0427817 -0.0581374  0
0.0546977 -0.0561271  0
0.0662825 -0.0533475  0
0.0773509 -0.0496227  0
0.0876401 -0.0447754  0
0.0968057 -0.0386621  0
0.104434 -0.0312134  0
0.110072 -0.022474  0
0.113276 -0.0126322  0
0.113667 -0.00203134  0
0.111002 0.00883378  0
0.105239 0.0193625  0
0.096568 0.0289529  0
0.085371 0.0371238  0
0.0721475 0.0435805  0
0.0574254 0.0482059  0
0.041712 0.0509637  0
0.0254948 0.0518257  0
0.00925492 0.0507648  0
-0.00651715 0.047724  0
-0.0212589 0.0425827  0
-0.0343229 0.0353499  0
-0.0450683 0.026266  0
-0.052965 0.0157872  0
-0.0576743 0.00452212  0
-0.0590929 -0.00687273  0
-0.0573461 -0.0177933  0
-0.0527439 -0.0277463  0
-0.0457286 -0.0363481  0
-0.036835 -0.0432571  0
-0.0266815 -0.0479806  0
-0.0160207 -0.0495172  0
-0.0058643 -0.0459879  0
0.00239592 -0.0350005  0
0.00713925 -0.0158437  0
0.00720887 0.00722935  0
0.00299551 0.0239596  0
0.00634975 -0.0752267  0
0.019088 -0.0747663  0
0.0318517 -0.0738265  0
0.0445829 -0.0723361  0
0.0572543 -0.0701559  0
0.0697881 -0.0670758  0
0.082021 -0.0628326  0
0.0936764 -0.0571455  0
0.104352 -0.0497671  0
0.113529 -0.0405462  0
0.12061 -0.0294925  0
0.124987 -0.0168246  0
0.126117 -0.00298967  0
0.123621 0.011323  0
0.117395 0.025233  0
0.107654 0.0378657  0
0.094861 0.0485724  0
0.0796059 0.0569813  0
0.0625147 0.062989  0
0.044187 0.0665919  0
0.0252203 0.067751  0
0.00621498 0.0664539  0
-0.0122454 0.0626358  0
-0.0294748 0.0560097  0
-0.0446582 0.046537  0
-0.0570092 0.0345413  0
-0.0658891 0.0206536  0
-0.0709004 0.00574024  0
-0.071956 -0.00925365  0
-0.0692727 -0.0234804  0
-0.0632993 -0.0362738  0
-0.0546406 -0.0471345  0
-0.0439979 -0.0556478  0
-0.0321425 -0.0612404  0
-0.0199562 -0.0627466  0
-0.00854517 -0.0579685  0
0.000661459 -0.0441297  0
0.00607517 -0.0205147  0
0.00662874 0.00763405  0
0.00281017 0.0279439  0
0.0065809 -0.0900681  0
0.0197889 -0.0896009  0
0.0330671 -0.0886711  0
0.0464284 -0.0872197  0
0.0599294 -0.0850788  0
0.0735713 -0.0819609  0
0.0872407 -0.0774805  0
0.100662 -0.0712037  0
0.113371 -0.062721  0
0.124717 -0.0517416  0
0.133916 -0.0382021  0
0.140142 -0.0223429  0
0.142632 -0.00471455  0
0.140789 0.0137638  0
0.134377 0.0318077  0
0.123608 0.0481778  0
0.108945 0.0620945  0
0.0909721 0.0730644  0
0.070397 0.0809491  0
0.0479804 0.0857523  0
0.0246031 0.0873104  0
0.00120946 0.0856688  0
-0.0212986 0.0807639  0
-0.0419599 0.0721463  0
-0.0597747 0.0597717  0
-0.0738856 0.0441407  0
-0.0836433 0.0260631  0
-0.0886386 0.00670734  0
-0.0888433 -0.0125913  0
-0.0846135 -0.0306878  0
-0.0765824 -0.046704  0
-0.0655717 -0.060008  0
-0.0524994 -0.0701244  0
-0.0383297 -0.0764249  0
-0.0241053 -0.0776094  0
-0.0110559 -0.0712034  0
-0.000677008 -0.0541178  0
0.00546163 -0.0257166  0
0.00639632 0.00771004  0
0.00275495 0.0316903  0
0.00679446 -0.105343  0
0.0204214 -0.104876  0
0.034138 -0.104022  0
0.0480558 -0.102778  0
0.062368 -0.100962  0
0.0772111 -0.0981891  0
0.0925711 -0.0939061  0
0.10821 -0.0874609  0
0.123617 -0.0782015  0
0.137997 -0.0656077  0
0.150336 -0.0494912  0
0.159567 -0.0301295  0
0.164652 -0.0081192  0
0.164602 0.0154451  0
0.158866 0.0386584  0
0.147575 0.0597709  0
0.130983 0.0781403  0
0.109353 0.0930053  0
0.0833766 0.103942  0
0.0540995 0.110835  0
0.0230668 0.113019  0
-0.00785936 0.110661  0
-0.0368313 0.103633  0
-0.062252 0.0917399  0
-0.0830253 0.0751457  0
-0.0985628 0.0547936  0
-0.108527 0.0315092  0
-0.112611 0.00671717  0
-0.11094 -0.0176917  0
-0.1041 -0.0402839  0
-0.0929521 -0.0599137  0
-0.0786 -0.0757894  0
-0.0622358 -0.0874087  0
-0.0450435 -0.0941328  0
-0.0282375 -0.0945627  0
-0.0131784 -0.0859901  0
-0.00143698 -0.0650834  0
0.00543358 -0.0313924  0
0.00659196 0.00766057  0
0.00285589 0.0354852  0
0.00694545 -0.12097  0
0.0208279 -0.120459  0
0.0347484 -0.119701  0
0.0489616 -0.118852  0
0.0638796 -0.117739  0
0.0798599 -0.115855  0
0.0970671 -0.112425  0
0.115377 -0.106507  0
0.13431 -0.0971101  0
0.152948 -0.083331  0
0.169997 -0.0647665  0
0.184202 -0.0419012  0
0.194261 -0.015102  0
0.198282 0.0148475  0
0.194848 0.0448174  0
0.18409 0.0720516  0
0.165875 0.0970567  0
0.139415 0.11857  0
0.104977 0.135181  0
0.0640039 0.146236  0
0.0194121 0.149632  0
-0.0246782 0.145453  0
-0.0640637 0.133585  0
-0.0959462 0.115477  0
-0.1195 0.0921217  0
-0.135289 0.0655286  0
-0.143954 0.0357877  0
-0.145338 0.00428932  0
-0.139891 -0.0259996  0
-0.128661 -0.0536667  0
-0.112762 -0.0771979  0
-0.0936861 -0.0955555  0
-0.0729937 -0.108323  0
-0.0520729 -0.114956  0
-0.0322415 -0.114002  0
-0.0149212 -0.102556  0
-0.00170161 -0.0771045  0
0.00589646 -0.0374665  0
0.00714826 0.00769786  0
0.00308893 0.0396169  0
0.00691026 -0.136701  0
0.0206022 -0.135987  0
0.0341476 -0.135257  0
0.0480195 -0.134998  0
0.0629652 -0.135072  0
0.0796763 -0.134827  0
0.0986186 -0.133215  0
0.119927 -0.128946  0
0.143349 -0.120633  0
0.16794 -0.106644  0
0.191874 -0.0860409  0
0.213942 -0.0605027  0
0.233062 -0.0292828  0
0.244824 0.00964337  0
0.245394 0.0492836  0
0.23605 0.0840846  0
0.217002 0.118685  0
0.185133 0.151668  0
0.138589 0.17946  0
0.0788632 0.19905  0
0.0116009 0.205066  0
-0.0540097 0.196114  0
-0.108731 0.173426  0
-0.148424 0.143606  0
-0.173615 0.109131  0
-0.187563 0.0746476  0
-0.192952 0.0371139  0
-0.189077 -0.00313824  0
-0.177005 -0.0397031  0
-0.158964 -0.0728477  0
-0.136087 -0.100407  0
-0.110466 -0.120659  0
-0.0843373 -0.133658  0
-0.0592192 -0.139278  0
-0.0362841 -0.136066  0
-0.0167657 -0.120951  0
-0.00207721 -0.0902388  0
0.00633534 -0.043964  0
0.00775609 0.00790172  0
0.00335605 0.0442515  0
0.00634392 -0.151818  0
0.0186806 -0.150568  0
0.0305288 -0.149682  0
0.0427181 -0.150245  0
0.0564646 -0.152126  0
0.0729165 -0.154543  0
0.0930253 -0.156155  0
0.117355 -0.155247  0
0.14625 -0.150251  0
0.178918 -0.137885  0
0.211632 -0.115047  0
0.243932 -0.0894609  0
0.277822 -0.0569309  0
0.30146 -0.00170293  0
0.304912 0.053014  0
0.29555 0.0954647  0
0.276929 0.141379  0
0.242326 0.191848  0
0.182764 0.241788  0
0.0971104 0.278502  0
-0.0032351 0.289622  0
-0.0979308 0.268265  0
-0.169786 0.224253  0
-0.216972 0.17606  0
-0.241924 0.123219  0
-0.251318 0.0802993  0
-0.252589 0.0345196  0
-0.241396 -0.0192157  0
-0.219893 -0.0608054  0
-0.193784 -0.0995024  0
-0.162221 -0.131801  0
-0.128037 -0.15268  0
-0.0954475 -0.163968  0
-0.0661685 -0.166979  0
-0.0407059 -0.160378  0
-0.01957 -0.140909  0
-0.00359514 -0.10456  0
0.00593395 -0.0512005  0
0.00799896 0.00803679  0
0.00355003 0.0493499  0
0.00445964 -0.164473  0
0.0127407 -0.162186  0
0.0202204 -0.160999  0
0.0283758 -0.162878  0
0.0389523 -0.167419  0
0.0536393 -0.17399  0
0.0742169 -0.180993  0
0.101329 -0.185446  0
0.136333 -0.187546  0
0.1791 -0.179617  0
0.218938 -0.149458  0
0.258289 -0.130291  0
0.312964 -0.108256  0
0.349218 -0.0138558  0
0.34587 0.0614772  0
0.331463 0.107182  0
0.31383 0.162327  0
0.28381 0.231933  0
0.220282 0.321202  0
0.109227 0.392203  0
-0.0268685 0.408768  0
-0.1439 0.357252  0
-0.222081 0.281709  0
-0.278834 0.218952  0
-0.305134 0.127986  0
-0.304189 0.0803865  0
-0.303273 0.0311904  0
-0.286055 -0.0478949  0
-0.255663 -0.0876182  0
-0.227277 -0.130785  0
-0.189699 -0.173261  0
-0.145337 -0.193369  0
-0.105258 -0.199553  0
-0.0720916 -0.197448  0
-0.0450271 -0.186046  0
-0.0231268 -0.161887  0
-0.00616272 -0.120131  0
0.00484308 -0.0597746  0
0.00817857 0.00759996  0
0.00385457 0.0549495  0
-7.23483e-05 -0.1707  0
-0.000974644 -0.166979  0
-0.00219523 -0.166067  0
-0.000939868 -0.17082  0
0.00460356 -0.179194  0
0.0165861 -0.192479  0
0.0386529 -0.208741  0
0.0680845 -0.217833  0
0.107756 -0.233423  0
0.160156 -0.232491  0
0.197565 -0.177414  0
0.229897 -0.177602  0
0.303913 -0.193218  0
0.341038 -0.00495884  0
0.314336 0.0808399  0
0.299973 0.1139  0
0.28365 0.186875  0
0.244714 0.274547  0
0.183328 0.40081  0
0.0797255 0.523659  0
-0.049826 0.539369  0
-0.134857 0.425125  0
-0.189383 0.342957  0
-0.292657 0.315044  0
-0.337823 0.100667  0
-0.303239 0.0685843  0
-0.299733 0.0349794  0
-0.284798 -0.0874273  0
-0.257274 -0.109593  0
-0.247694 -0.150368  0
-0.217 -0.225546  0
-0.161892 -0.244153  0
-0.113416 -0.240927  0
-0.0754983 -0.230762  0
-0.0460574 -0.212841  0
-0.0227652 -0.183889  0
-0.00463548 -0.136828  0
0.00710814 -0.0694321  0
0.0107604 0.00666449  0
0.00518135 0.062183  0
-0.00871644 -0.163739  0
-0.0261615 -0.159219  0
-0.0407012 -0.161663  0
-0.0468912 -0.173884  0
-0.046002 -0.186155  0
-0.0358436 -0.211249  0
-0.00709073 -0.244378  0
0.0220137 -0.244316  0
0.0577628 -0.285943  0
0.10598 -0.283273  0
0.134754 -0.194605  0
0.151708 -0.211489  0
0.161598 -0.245027  0
0.201962 -0.118099  0
0.248278 0.112097  0
0.246236 0.122446  0
0.205079 0.166095  0
0.121765 0.367923  0
0.0716124 0.437237  0
0.0568981 0.603752  0
0.0191293 0.624802  0
-0.00905583 0.451115  0
-0.0141864 0.374832  0
-0.120043 0.229989  0
-0.225899 0.0744294  0
-0.220367 0.0529092  0
-0.202387 0.0273754  0
-0.193469 -0.10547  0
-0.20529 -0.109047  0
-0.239055 -0.128522  0
-0.232696 -0.287141  0
-0.172635 -0.301321  0
-0.12028 -0.288186  0
-0.0752027 -0.270097  0
-0.0374588 -0.244291  0
-0.00688243 -0.209909  0
0.0148113 -0.154233  0
0.0224484 -0.0750086  0
0.0196974 0.00773941  0
0.00861002 0.0741744  0
-0.0218446 -0.134997  0
-0.0623666 -0.133609  0
-0.0908842 -0.147807  0
-0.09779 -0.178233  0
-0.0988643 -0.185207  0
-0.0921229 -0.232682  0
-0.0541754 -0.29323  0
-0.0271241 -0.254307  0
-0.0272702 -0.313344  0
-0.00144731 -0.309164  0
0.092952 -0.100835  0
0.173387 -0.11069  0
0.173422 -0.122513  0
0.0807992 -0.122513  0
0.127115 0.0652201  0
0.246236 0.0652201  0
0.119121 0.0652201  0
0.0358062 0.218618  0
-0.0190026 0.218618  0
-0.0484115 0.309233  0
0.10024 0.323928  0
0.127456 0.228123  0
0.0265203 0.187416  0
-0.120043 0.0372147  0
-0.212373 0.0372147  0
-0.190616 0.0236885  0
-0.127728 0.00746401  0
-0.135628 -0.0509704  0
-0.204736 -0.0503776  0
-0.188562 -0.211461  0
-0.165836 -0.319873  0
-0.152801 -0.343482  0
-0.118641 -0.335237  0
-0.0694165 -0.320945  0
-0.0145519 -0.28965  0
0.0353293 -0.248605  0
0.0675931 -0.173091  0
0.0589992 -0.0587903  0
0.0326047 0.0170711  0
0.0119763 0.0929632  0
-0.0370513 -0.0779109  0
-0.0995802 -0.0912486  0
-0.135663 -0.129154  0
-0.133199 -0.196029  0
-0.131647 -0.170575  0
-0.137625 -0.249869  0
-0.132084 -0.321322  0
-0.0500851 -0.287741  0
0.00232171 -0.156672  0
-0.0136351 -0.156672  0
0 0  0
0 0  0
0 0  0
0 0  0
0 0  0
0 0  0
0 0  0
0 0  0
0 0  0
0 0  0
0 0  0
0 0  0
0 0  0
0 0  0
0 0  0
0 0  0
0 0  0
0 0  0
0 0  0
-0.082918 -0.159936  0
-0.147514 -0.159936  0
-0.100211 -0.356889  0
-0.0712288 -0.357263  0
-0.0440759 -0.377995  0
0.0189108 -0.354046  0
0.0876941 -0.306467  0
0.136103 -0.199495  0
0.0990196 0.00970014  0
0.0301679 0.0402359  0
0.00692991 0.110074  0
-0.0444148 0.00175293  0
-0.108614 -0.04778  0
-0.149348 -0.0984951  0
-0.170297 -0.209994  0
-0.108555 -0.184526  0
-0.0564922 -0.127705  0
-0.0991274 -0.160661  0
-0.0660419 -0.160661  0
0 0  0
0 0  0
0 0  0
0 0  0
0 0  0
0 0  0
0 0  0
0 0  0
0 0  0
0 0  0
0 0  0
0 0  0
0 0  0
0 0  0
0 0  0
0 0  0
0 0  0
0 0  0
0 0  0
0 0  0
0 0  0
0 0  0
0 0  0
-0.0356144 -0.178631  0
-0.0231547 -0.381655  0
0.0249193 -0.406047  0
0.0488811 -0.41474  0
0.086631 -0.354102  0
0.0968257 -0.212258  0
0.059816 0.0947628  0
0.00815569 0.0738909  0
-0.00504416 0.111063  0
-0.00809816 0.0533664  0
-0.0161963 -0.028892  0
-0.0270227 -0.0532189  0
-0.104073 -0.104997  0
-0.0851485 -0.104997  0
0 0  0
0 0  0
0 0  0
0 0  0
0 0  0
0 0  0
0 0  0
0 0  0
0 0  0
0 0  0
0 0  0
0 0  0
0 0  0
0 0  0
0 0  0
0 0  0
0 0  0
0 0  0
0 0  0
0 0  0
0 0  0
0 0  0
0 0  0
0 0  0
0 0  0
0 0  0
0 0  0
0.0124597 -0.203023  0
0.0412469 -0.203023  0
0.0298028 -0.219351  0
-0.0283873 -0.183945  0
-0.151209 -0.104332  0
-0.0905839 0.0640895  0
0.0192358 0.0460674  0
-0.0119861 0.0530094  0
0.0370802 0.0307323  0
0.028982 -0.014446  0
-0.00809816 -0.014446  0
0 0  0
0 0  0
0 0  0
0 0  0
0 0  0
0 0  0
0 0  0
0 0  0
0 0  0
0 0  0
0 0  0
0 0  0
0 0  0
0 0  0
0 0  0
0 0  0
0 0  0
0 0  0
0 0  0
0 0  0
0 0  0
0 0  0
0 0  0
0 0  0
0 0  0
0 0  0
0 0  0
0 0  0
0 0  0
0 0  0
0 0  0
0 0  0
0 0  0
0 0  0
0 0  0
0 0  0
0 0  0
0 0  0
0 0  0
0 0  0
0 0  0
0 0  0
0 0  0
0 0  0
0 0  0
0 0  0
0 0  0
0 0  0
0 0  0
0 0  0
0 0  0
0 0  0
0 0  0
0 0  0
0 0  0
0 0  0
0 0  0
0 0  0
0 0  0
0 0  0
0 0  0
0 0  0
0 0  0
0 0  0
0 0  0
0 0  0
0 0  0
0 0  0
0 0  0
0 0  0
0 0  0
0 0  0
0 0  0
0 0  0
0 0  0
0 0  0
0 0  0
0 0  0
0 0  0
0 0  0
0 0  0
0 0  0
0 0  0
0 0  0
0 0  0
0 0  0
0 0  0
0 0  0
0 0  0
0 0  0
0 0  0
0 0  0
0 0  0
0 0  0
0 0  0
0 0  0
0 0  0
0 0  0
0 0  0
0 0  0
0 0  0
0 0  0
0 0  0
0 0  0
0 0  0
0 0  0
0 0  0
0 0  0
0 0  0
0 0  0
0 0  0
0 0  0
0 0  0
0 0  0
0 0  0
0 0  0
0 0  0
0 0  0
0 0  0
0 0  0
0 0  0
0 0  0
0 0  0
0 0  0
0 0  0
0 0  0
0 0  0
0 0  0
0 0  0
0 0  0
0 0  0
0 0  0
0 0  0
0 0  0
0 0  0
0 0  0
0 0  0
0 0  0
0 0  0
0 0  0
0 0  0
0 0  0
0 0  0
0 0  0
0 0  0
0 0  0
0 0  0
0 0  0
0 0  0
0 0  0
0 0  0
0 0  0
0 0  0
0 0  0
0 0  0
0 0  0
0 0  0
0 0  0
0 0  0
0 0  0
0 0  0
0 0  0
0 0  0
0 0  0
0 0  0
0 0  0
0 0  0
0 0  0
0 0  0
0 0  0
0 0  0
0 0  0
0 0  0
0 0  0
0 0  0
0 0  0
0 0  0
0 0  0
0 0  0
0 0  0
0 0  0
0 0  0
0 0  0
0 0  0
0 0  0
0 0  0
0 0  0
0 0  0
0 0  0
0 0  0
0 0  0
0 0  0
0 0  0
0 0  0
0 0  0
0 0  0
0 0  0
0 0  0
0 0  0
0 0  0
0 0  0
0 0  0
0 0  0
0 0  0
0 0  0
0 0  0
0 0  0
0 0  0
0 0  0
0 0  0
0 0  0
0 0  0
0 0  0
0 0  0
0 0  0
0 0  0
0 0  0
0 0  0
0 0  0
0 0  0
0 0  0
0 0  0
0 0  0
0 0  0
0 0  0
0 0  0
0 0  0
0 0  0
0 0  0
0 0  0
0 0  0
0 0  0
0 0  0
0 0  0
0 0  0
0 0  0
0 0  0
0 0  0
0 0  0
0 0  0
0 0  0
0 0  0
0 0  0
0 0  0
0 0  0
0 0  0
0 0  0
0 0  0
0 0  0
0 0  0
0 0  0
0 0  0
0 0  0
0 0  0
0 0  0
0 0  0
0 0  0
0 0  0
0 0  0
0 0  0
0 0  0
0 0  0
0 0  0
0 0  0
0 0  0
0 0  0
0 0  0
0 0  0
0 0  0
0 0  0
0 0  0
0 0  0
0 0  0
0 0  0
0 0  0
0 0  0
0 0  0
0 0  0
0 0  0
0 0  0
0 0  0
0 0  0
0 0  0
0 0  0
0 0  0
0 0  0
0 0  0
0 0  0
0 0  0
0 0  0
0 0  0
0 0  0
0 0  0
0 0  0
0 0  0
0 0  0
0 0  0
0 0  0
0 0  0
0 0  0
0 0  0
0 0  0
0 0  0
0 0  0
0 0  0
0 0  0
0 0  0
0 0  0
0 0  0
0 0  0
0 0  0
0 0  0
0 0  0
0 0  0
0 0  0
0 0  0
0 0  0
0 0  0
0 0  0
0 0  0
0 0  0
0 0  0
0 0  0
0 0  0
0 0  0
0 0  0
0 0  0
0 0  0
0 0  0
0 0  0
0 0  0
0 0  0
0 0  0
0 0  0
0 0  0
0 0  0
0 0  0
0 0  0
0 0  0
0 0  0
0 0  0
0 0  0
0 0  0
0 0  0
0 0  0
0 0  0
0 0  0
0 0  0
0 0  0
0 0  0
0 0  0
0 0  0
0 0  0
0 0  0
0 0  0
0 0  0
0 0  0
0 0  0
0 0  0
0 0  0
0 0  0
0 0  0
0 0  0
0 0  0
0 0  0
0 0  0
0 0  0
0 0  0
0 0  0
0 0  0
0 0  0
0 0  0
0 0  0
0 0  0
0 0  0
0 0  0
0 0  0
0 0  0
0 0  0
0 0  0
0 0  0
0 0  0
0 0  0
0 0  0
0 0  0
0 0  0
0 0  0
0 0  0
0 0  0
0 0  0
0 0  0
0 0  0
0 0  0
0 0  0
0 0  0
0 0  0
0 0  0
0 0  0
0 0  0
0 0  0
0 0  0
0 0  0
0 0  0
0 0  0
0 0  0
0 0  0
0 0  0
0 0  0
0 0  0
0 0  0
0 0  0
0 0  0
0 0  0
0 0  0
0 0  0
0 0  0
0 0  0
0 0  0
0 0  0
0 0  0
0 0  0
0 0  0
0 0  0
0 0  0
0 0  0
0 0  0
0 0  0
0 0  0
0 0  0
0 0  0
0 0  0
0 0  0
0 0  0
0 0  0
0 0  0
0 0  0
0 0  0
0 0  0
0 0  0
0 0  0
0 0  0
0 0  0
0 0  0
0 0  0
0 0  0
0 0  0
0 0  0
0 0  0
0 0  0
0 0  0
0 0  0
0 0  0
0 0  0
0 0  0
0 0  0
0 0  0
0 0  0
0 0  0
0 0  0
0 0  0
0 0  0
0 0  0
0 0  0
0 0  0
0 0  0
0 0  0
0 0  0
0 0  0
0 0  0
0 0  0
0 0  0
0 0  0
0 0  0
0 0  0
0 0  0
0 0  0
0 0  0

SCALARS pressure double 1
LOOKUP_TABLE default
2.52505
2.52381
2.52114
2.51716
2.51201
2.50589
2.49903
2.49169
2.48416
2.47673
2.46969
2.4633
2.4578
2.45336
2.45011
2.4481
2.4473
2.44767
2.44908
2.45142
2.45459
2.45849
2.46307
2.46825
2.47408
2.48055
2.48764
2.49529
2.5034
2.51182
2.52036
2.52882
2.53694
2.54451
2.55131
2.55715
2.56195
2.56562
2.56815
2.56947
2.32931
2.32803
2.32526
2.32114
2.31582
2.30949
2.30241
2.29482
2.28704
2.27936
2.27208
2.26549
2.25981
2.25524
2.25192
2.24988
2.24912
2.24954
2.25104
2.25348
2.25672
2.26069
2.26532
2.27055
2.27642
2.28297
2.29015
2.29793
2.30619
2.31478
2.32351
2.33216
2.34048
2.34823
2.35519
2.36118
2.3661
2.36988
2.37247
2.37383
2.13771
2.13632
2.13336
2.12897
2.12329
2.11655
2.10899
2.10091
2.09261
2.08442
2.07666
2.06963
2.06359
2.05876
2.05528
2.0532
2.0525
2.05307
2.05475
2.05738
2.06079
2.06488
2.06961
2.07491
2.08088
2.08756
2.09494
2.10297
2.11153
2.12048
2.12959
2.13863
2.14735
2.15548
2.16279
2.16908
2.17425
2.17821
2.18094
2.18236
1.95032
1.94878
1.94553
1.9407
1.93448
1.92709
1.9188
1.90994
1.90083
1.89184
1.88333
1.87562
1.86901
1.86377
1.86005
1.85793
1.85735
1.85817
1.86017
1.86311
1.86678
1.87106
1.8759
1.88129
1.88738
1.89425
1.90191
1.91031
1.91935
1.92883
1.93855
1.94822
1.95756
1.96629
1.97413
1.9809
1.98645
1.99072
1.99365
1.99517
1.76729
1.76553
1.76187
1.75644
1.74945
1.74116
1.73185
1.72189
1.71165
1.70153
1.69194
1.68327
1.67586
1.67002
1.66598
1.66381
1.66346
1.66471
1.66723
1.67067
1.67473
1.67923
1.68414
1.68957
1.69578
1.70287
1.71088
1.71979
1.72948
1.73973
1.75028
1.76084
1.77108
1.78065
1.78927
1.7967
1.80281
1.80749
1.8107
1.81236
1.58878
1.58674
1.58253
1.57632
1.56832
1.55881
1.54815
1.53672
1.52496
1.51333
1.5023
1.49232
1.4838
1.47713
1.47265
1.47047
1.47051
1.47246
1.47584
1.48007
1.48465
1.48938
1.49423
1.49958
1.50582
1.51313
1.52159
1.53115
1.54169
1.55294
1.56463
1.5764
1.58785
1.59859
1.60826
1.61659
1.62343
1.62867
1.63224
1.63408
1.41506
1.41265
1.40774
1.40051
1.39121
1.38015
1.36773
1.35439
1.34064
1.32703
1.3141
1.30238
1.29236
1.28454
1.27945
1.2773
1.27799
1.28111
1.28589
1.29135
1.29668
1.30154
1.30602
1.31099
1.31709
1.32461
1.3336
1.34399
1.35561
1.36817
1.38137
1.39475
1.40783
1.42011
1.43117
1.44068
1.44846
1.45442
1.45845
1.46051
1.24643
1.24357
1.23777
1.22926
1.21832
1.20531
1.19064
1.17485
1.15853
1.14235
1.12696
1.11295
1.10088
1.0914
1.08542
1.08333
1.08504
1.09004
1.09717
1.10467
1.11106
1.11569
1.11916
1.12319
1.12888
1.13661
1.14628
1.15771
1.17068
1.18493
1.20011
1.21565
1.2309
1.24523
1.2581
1.26914
1.27811
1.28494
1.28954
1.29186
1.08333
1.07989
1.07299
1.0629
1.04993
1.03447
1.01698
0.99804
0.978404
0.958907
0.940354
0.923336
0.908386
0.896359
0.889007
0.887009
0.89013
0.8981
0.909253
0.920167
0.928108
0.931669
0.932877
0.934892
0.93992
0.948033
0.958662
0.971402
0.986004
1.00243
1.02029
1.03875
1.05693
1.07398
1.08922
1.10219
1.11264
1.12051
1.12575
1.12839
0.926306
0.922147
0.913881
0.901842
0.886405
0.867954
0.84692
0.823939
0.799962
0.77612
0.753578
0.732696
0.713529
0.697202
0.687683
0.685912
0.690483
0.702766
0.721005
0.737729
0.747938
0.748657
0.745261
0.743386
0.747966
0.757196
0.769326
0.783687
0.800146
0.819403
0.84104
0.863592
0.885764
0.906455
0.924785
0.940189
0.952417
0.961472
0.967414
0.97036
0.776067
0.771002
0.761043
0.746645
0.728259
0.706235
0.680824
0.652595
0.622797
0.593032
0.565814
0.540393
0.514784
0.489749
0.477436
0.47733
0.481362
0.498642
0.529981
0.556192
0.569181
0.563989
0.552288
0.542747
0.549684
0.562185
0.576557
0.592536
0.610864
0.633803
0.661118
0.689566
0.717304
0.742915
0.765275
0.783726
0.798052
0.808356
0.814912
0.818082
0.633584
0.627347
0.615247
0.597955
0.576104
0.550011
0.519326
0.484199
0.446346
0.407452
0.376408
0.347502
0.311675
0.265611
0.252641
0.262946
0.256284
0.275081
0.333707
0.372491
0.386769
0.372931
0.348986
0.319654
0.342493
0.363032
0.379397
0.39594
0.415497
0.442491
0.478917
0.516039
0.55166
0.583976
0.611559
0.633742
0.650411
0.661865
0.668654
0.671759
0.500174
0.492339
0.477388
0.45636
0.430407
0.400139
0.36345
0.319201
0.270389
0.212721
0.185598
0.160575
0.111067
0.00662545
0.00576415
0.0670902
0.00672322
0.0104431
0.146805
0.185502
0.195527
0.177497
0.144374
0.0337896
0.133816
0.167867
0.180712
0.195166
0.212795
0.240334
0.292939
0.342435
0.38937
0.430842
0.464979
0.491424
0.510451
0.522656
0.528783
0.531242
0.377488
0.367279
0.348191
0.321897
0.290685
0.257579
0.214943
0.158589
0.100472
-0.0124059
-0.00273668
-0.00476904
-0.0220846
0
0
0
0
0
0.0693667
0.00576784
0.0112255
0.00225573
0.0134333
0
-0.00360982
-0.00262942
-0.00631408
0.00168285
0.00399106
0.0125372
0.105007
0.168445
0.231763
0.285487
0.327132
0.357502
0.37856
0.390686
0.394544
0.395576
0.266863
0.252993
0.227768
0.193832
0.153224
0.12272
0.0788877
8.5761e-05
-0.0177495
0
0
0
0
0
0
0
0
0
0
0
0
0
0
0
0
0
0
0
0
0
-0.0462556
-0.0069831
0.0822565
0.150937
0.19929
0.23145
0.252343
0.264063
0.264028
0.262777
0.167844
0.149277
0.1156
0.073274
0.00567997
-0.00279998
-0.0187169
0
0
0
0
0
0
0
0
0
0
0
0
0
0
0
0
0
0
0
0
0
0
0
0
0
-0.0465239
0.0328574
0.0834178
0.109225
0.124009
0.136187
0.13554
0.13068
0.0785398
0.0583984
0.0105406
-0.0188235
0
0
0
0
0
0
0
0
0
0
0
0
0
0
0
0
0
0
0
0
0
0
0
0
0
0
0
0
0
-0.0556524
-0.0121647
-0.00725509
0.00180458
0.0178606
0.00908562
-0.00279004
0.00411522
0.00151627
0
0
0
0
0
0
0
0
0
0
0
0
0
0
0
0
0
0
0
0
0
0
0
0
0
0
0
0
0
0
0
0
0
0
0
0
0
0
0
0
0
0
0
0
0
0
0
0
0
0
0
0
0
0
0
0
0
0
0
0
0
0
0
0
0
0
0
0
0
0
0
0
0
0
0
0
0
0
0
0
0
0
0
0
0
0
0
0
0
0
0
0
0
0
0
0
0
0
0
0
0
0
0
0
0
0
0
0
0
0
0
0
0
0
0
0
0
0
0
0
0
0
0
0
0
0
0
0
0
0
0
0
0
0
0
0
0
0
0
0
0
0
0
0
0
0
0
0
0
0
0
0
0
0
0
0
0
0
0
0
0
0
0
0
0
0
0
0
0
0
0
0
0
0
0
0
0
0
0
0
0
0
0
0
0
0
0
0
0
0
0
0
0
0
0
0
0
0
0
0
0
0
0
0
0
0
0
0
0
0
0
0
0
0
0
0
0
0
0
0
0
0
0
0
0
0
0
0
0
0
0
0
0
0
0
0
0
0
0
0
0
0
0
0
0
0
0
0
0
0
0
0
0
0
0
0
0
0
0
0
0
0
0
0
0
0
0
0
0
0
0
0
0
0
0
0
0
0
0
0
0
0
0
0
0
0
0
0
0
0
0
0
0
0
0
0
0
0
0
0
0
0
0
0
0
0
0
0
0
0
0
0
0
0
0
0
0
0
0
0
0
0
0
0
0
0
0
0
0
0
0
0
0
0
0
0
0
0
0
0
0
0
0
0
0
0
0
0
0
0
0
0
0
0
0
0
0
0
0
0
0
0
0
0
0
0
0
0
0
0
0
0
0
0
0
0
0
0
0
0
0
0
0
0
0
0
0
0
0
0
0
0
0
0
0
0
0
0
0
0
0
0
0
0
0
0
0
0
0
0
0
0
0
0
0
0
0
0
0
0
0
0
0
0
0
0
0
0
0
0
0
0
0
0
0
0
0
0
0
0
0
0
0
0
0
0
0
0
0
0
0
0
0
0
0
0
0
0
0
0
0
0
0
0
0
0
0
0
0
0
0
0
0
0
0
0
0
0
0
0
0
0
0
0
0
0
0
0
0
0
0
0
0
0
0
0
0
0
0
0
0
0
0
0
0
0
0
0
0
0
0
0
0
0
0
0
0
0
SCALARS rhs double 1
LOOKUP_TABLE default
-5.06785
-5.00936
-5.00677
-5.00444
-5.00199
-4.99943
-4.9968
-4.99413
-4.99152
-4.98909
-4.98696
-4.98528
-4.98415
-4.98358
-4.98354
-4.98392
-4.98458
-4.98538
-4.98617
-4.98682
-4.98724
-4.9874
-4.98827
-4.9871
-4.98626
-4.98592
-4.98582
-4.98609
-4.98682
-4.98799
-4.98955
-4.99135
-4.99316
-4.9947
-4.99535
-4.99475
-4.99389
-4.99217
-4.99229
-4.99414
-0.00658194
0.0483973
0.0494377
0.0502376
0.0511653
0.0522194
0.0533858
0.0546299
0.0558894
0.0570721
0.0580636
0.0587448
0.0590813
0.0590054
0.0583914
0.0574411
0.0563053
0.055157
0.0541582
0.0534385
0.0530842
0.0531325
0.052352
0.0543157
0.0555881
0.0565294
0.0572522
0.0576004
0.0573387
0.0568222
0.0559587
0.0548907
0.0538102
0.0529846
0.0528906
0.0541135
0.0550911
0.0568715
0.0567994
0.0548236
-0.0028461
0.0496337
0.0505936
0.0513127
0.052146
0.0530963
0.0541565
0.0552997
0.0564699
0.0575789
0.0585124
0.0591474
0.0594997
0.0594825
0.0588404
0.0578712
0.0567306
0.0555906
0.0546051
0.0538934
0.0535337
0.0535598
0.0522154
0.0549111
0.0559259
0.0568718
0.0576116
0.0579765
0.0575855
0.0571027
0.0562869
0.0552948
0.0543382
0.0537054
0.0537895
0.0553916
0.056664
0.0585312
0.0585199
0.056605
0.000933218
0.0505003
0.0513673
0.0519828
0.0526848
0.0534822
0.0543778
0.0553564
0.0563732
0.0573475
0.0581669
0.0587051
0.0590447
0.0590968
0.0584029
0.0574057
0.0562667
0.055152
0.0541973
0.0535024
0.0531328
0.0527175
0.0515467
0.0543524
0.0552743
0.0562207
0.0569922
0.0573937
0.0568499
0.05645
0.05574
0.0548953
0.0541518
0.0538198
0.0542868
0.0560455
0.0580526
0.059856
0.0599639
0.0581506
0.00505465
0.0513355
0.0520896
0.0525666
0.0530816
0.053649
0.0542841
0.0549885
0.0557348
0.0564552
0.0570427
0.0573691
0.0576096
0.0577456
0.0569475
0.0559044
0.0547779
0.0537155
0.0528161
0.0521486
0.0517664
0.0504426
0.0500073
0.0526007
0.0534478
0.054394
0.0552339
0.0557136
0.0550043
0.0547966
0.0543093
0.0537382
0.0533451
0.0534578
0.0544401
0.0566935
0.0590262
0.0609696
0.0612731
0.0596426
0.00947847
0.0521575
0.0527853
0.0530871
0.0533443
0.0535737
0.0538045
0.0540597
0.0543352
0.0545841
0.0547078
0.054574
0.0544717
0.0547172
0.05369
0.05255
0.051422
0.0504142
0.0495631
0.0488978
0.0484983
0.045317
0.0468838
0.0487954
0.0495448
0.0505152
0.0515166
0.052156
0.0513274
0.0515484
0.0515154
0.051444
0.0516211
0.0523858
0.0540562
0.0568045
0.0598088
0.061716
0.0623122
0.0609879
0.0141744
0.0530099
0.0535162
0.0536112
0.0535235
0.0532652
0.0528779
0.0524058
0.0518687
0.0512466
0.0504477
0.0493035
0.0481491
0.0485852
0.0470324
0.0456489
0.0443439
0.0431881
0.0421557
0.041252
0.0407846
0.0340567
0.0401989
0.040956
0.0417593
0.0428838
0.0442674
0.0451995
0.0445072
0.0456682
0.0465606
0.0474137
0.0485344
0.0502733
0.0528915
0.0563078
0.0601773
0.062049
0.063009
0.0621277
0.0191379
0.0539871
0.0544182
0.0542925
0.0537578
0.0528124
0.0515046
0.0498817
0.0479551
0.045734
0.0431459
0.0397837
0.035489
0.0364768
0.0338158
0.0318803
0.0295741
0.027159
0.0247201
0.0223777
0.0185505
0.0124209
0.023235
0.0247767
0.0266424
0.0283986
0.0305673
0.0318829
0.0322146
0.0353588
0.0381318
0.0407536
0.043499
0.0467466
0.0507461
0.0552724
0.0601067
0.0621684
0.0634631
0.0630585
0.0244532
0.0553119
0.0557773
0.0554341
0.0543253
0.052437
0.0498127
0.0464424
0.0421713
0.0370839
0.0314857
0.0236009
0.0116818
0.0118065
0.00897271
0.0064632
0.000404947
-0.00765752
-0.0168092
-0.0255313
-0.0430107
-0.0366663
-0.0162667
-0.00822594
-0.00111684
0.00275693
0.00591663
0.00698855
0.0111803
0.0179161
0.0242005
0.0302845
0.0359806
0.0416595
0.0477668
0.0540576
0.0603155
0.0626927
0.0641094
0.0638841
0.030469
0.0575084
0.0581298
0.0574752
0.0555283
0.0522934
0.0477871
0.041862
0.0336297
0.0237054
0.0157848
0.000588506
-0.0266232
-0.0374751
-0.0296688
-0.0290329
-0.0446225
-0.0716891
-0.108414
-0.141674
-0.203336
-0.145688
-0.0972221
-0.0684242
-0.0438021
-0.0339969
-0.0325171
-0.0360935
-0.0186664
-0.00835777
0.00209953
0.0146536
0.0259603
0.0356483
0.0448915
0.0538141
0.0616711
0.0648196
0.0656167
0.0648108
0.0379965
0.0615309
0.0621234
0.0604869
0.0568408
0.0512195
0.0435434
0.0340053
0.0187119
0.00183797
0.00461669
-0.0183827
-0.0933225
-0.0973187
-0.0569932
-0.040389
-0.0664874
-0.133664
-0.259234
-0.384599
-0.545848
-0.322219
-0.203778
-0.148906
-0.0837293
-0.0573417
-0.0703448
-0.0784538