# vtk DataFile Version 4.0
Nusif Fluid VTK output
ASCII
DATASET STRUCTURED_POINTS
DIMENSIONS 40 30 1
ORIGIN 0 0 0 
SPACING 0.2 0.2 1
POINT_DATA 1200 

VECTORS velocity double
-0.00627691 0.00691514  0
-0.0187253 0.0067505  0
-0.0307424 0.00642337  0
-0.0419505 0.00593872  0
-0.052048 0.00531046  0
-0.0607713 0.00456247  0
-0.0679125 0.00372646  0
-0.0733307 0.00283789  0
-0.0769551 0.0019312  0
-0.0787789 0.001036  0
-0.0788474 0.000174828  0
-0.0772432 -0.00063767  0
-0.074071 -0.00139411  0
-0.0694453 -0.00209206  0
-0.0634834 -0.002731  0
-0.0563054 -0.00330888  0
-0.0480398 -0.00381932  0
-0.0388332 -0.0042505  0
-0.02886 -0.00458653  0
-0.0183264 -0.00481155  0
-0.00746467 -0.0049152  0
0.00348198 -0.00489712  0
0.0142824 -0.00476959  0
0.0247377 -0.00455246  0
0.0346884 -0.00426573  0
0.0440103 -0.00392416  0
0.0526003 -0.00353439  0
0.0603599 -0.00309437  0
0.0671786 -0.00259409  0
0.0729187 -0.00201621  0
0.0774 -0.00133585  0
0.0803848 -0.000520263  0
0.0815636 0.000469684  0
0.0805483 0.00167342  0
0.0768863 0.00311593  0
0.070117 0.00478043  0
0.0598869 0.00657647  0
0.0461175 0.00831952  0
0.0291804 0.00974392  0
0.00999986 0.010563  0
-0.006451 0.0208586  0
-0.0192429 0.0203635  0
-0.0315908 0.0193751  0
-0.0431046 0.0179054  0
-0.0534652 0.0159957  0
-0.0623927 0.0137196  0
-0.0696692 0.0111763  0
-0.0751518 0.00847637  0
-0.0787756 0.00572674  0
-0.0805454 0.00301843  0
-0.0805211 0.000419673  0
-0.0787994 -0.00202636  0
-0.0754968 -0.00429937  0
-0.0707349 -0.00639452  0
-0.0646337 -0.00831269  0
-0.0573111 -0.0100496  0
-0.0488909 -0.011587  0
-0.0395155 -0.0128883  0
-0.029358 -0.0139037  0
-0.0186284 -0.0145826  0
-0.00756852 -0.0148915  0
0.00356647 -0.0148289  0
0.0145353 -0.0144343  0
0.0251354 -0.013771  0
0.0352109 -0.0129021  0
0.0446449 -0.0118731  0
0.0533427 -0.0107034  0
0.061212 -0.00938506  0
0.0681441 -0.00788561  0
0.0739975 -0.00615028  0
0.0785835 -0.00410184  0
0.081651 -0.00163996  0
0.0828738 0.00135383  0
0.081847 0.0049969  0
0.0781062 0.00936026  0
0.0711892 0.014387  0
0.0607542 0.0197993  0
0.0467444 0.02504  0
0.0295548 0.0293141  0
0.0101237 0.0317685  0
-0.00681112 0.0352715  0
-0.0203158 0.0344398  0
-0.0333519 0.0327659  0
-0.0455004 0.0302593  0
-0.056403 0.0269868  0
-0.0657452 0.0230795  0
-0.0732884 0.0187167  0
-0.0788875 0.0140979  0
-0.082492 0.00941336  0
-0.0841328 0.0048219  0
-0.0839009 0.00043911  0
-0.0819234 -0.00366604  0
-0.0783411 -0.00746601  0
-0.0732917 -0.0109609  0
-0.0669007 -0.0141605  0
-0.0592829 -0.0170644  0
-0.0505534 -0.0196444  0
-0.0408455 -0.0218371  0
-0.0303293 -0.0235517  0
-0.019222 -0.0246946  0
-0.00778215 -0.0252027  0
0.00371294 -0.0250716  0
0.0150041 -0.0243756  0
0.0258835 -0.0232335  0
0.0362035 -0.0217595  0
0.0458624 -0.0200333  0
0.0547813 -0.0180851  0
0.0628786 -0.0158953  0
0.0700473 -0.0134017  0
0.0761379 -0.0105041  0
0.0809433 -0.0070655  0
0.0841851 -0.00291196  0
0.0855046 0.00215706  0
0.0844645 0.00833384  0
0.0805777 0.0157241  0
0.0733784 0.0242126  0
0.0625443 0.0333158  0
0.048056 0.0420945  0
0.0303487 0.0492294  0
0.0103887 0.0533174  0
-0.00739059 0.0506153  0
-0.0220438 0.0494351  0
-0.0361884 0.047029  0
-0.0493525 0.0433857  0
-0.0611099 0.0385968  0
-0.0710887 0.0328664  0
-0.0790193 0.0264789  0
-0.0847576 0.0197482  0
-0.0882824 0.0129671  0
-0.0896709 0.00637196  0
-0.0890669 0.000127307  0
-0.0866473 -0.00567733  0
-0.0825934 -0.0110172  0
-0.0770691 -0.0159099  0
-0.0702114 -0.020387  0
-0.0621324 -0.0244617  0
-0.0529357 -0.0281004  0
-0.0427426 -0.0312095  0
-0.0317181 -0.0336477  0
-0.0200866 -0.0352654  0
-0.008126 -0.0359606  0
0.00386072 -0.0357239  0
0.0155948 -0.0346772  0
0.0268667 -0.0330122  0
0.0375432 -0.0309064  0
0.0475449 -0.0284765  0
0.0568132 -0.0257588  0
0.0652773 -0.0227128  0
0.0728283 -0.0192339  0
0.0793001 -0.0151646  0
0.0844558 -0.0102967  0
0.0879762 -0.00437389  0
0.0894545 0.00289029  0
0.0884062 0.0117577  0
0.0843112 0.0223507  0
0.0766979 0.0344672  0
0.0652719 0.0473897  0
0.0500659 0.0597831  0
0.031572 0.0698102  0
0.0107984 0.0755386  0
-0.00825961 0.0673977  0
-0.0246349 0.0658494  0
-0.0404335 0.0626295  0
-0.0550905 0.0576773  0
-0.0680714 0.051114  0
-0.0789201 0.043247  0
-0.0873295 0.0345081  0
-0.0931698 0.0253672  0
-0.0964754 0.0162478  0
-0.0974015 0.00747509  0
-0.0961742 -0.000738218  0
-0.0930445 -0.00829234  0
-0.088252 -0.0151801  0
-0.0820011 -0.0214538  0
-0.0744495 -0.0271844  0
-0.0657119 -0.032413  0
-0.0558828 -0.0371072  0
-0.0450704 -0.0411407  0
-0.0334324 -0.0443117  0
-0.0211954 -0.0464028  0
-0.00864823 -0.0472641  0
0.00389049 -0.0468792  0
0.0161335 -0.0454325  0
0.0278802 -0.0432093  0
0.039021 -0.0404605  0
0.0495021 -0.0373393  0
0.0592819 -0.0338786  0
0.0682923 -0.0300022  0
0.0764095 -0.0255477  0
0.083437 -0.0202853  0
0.0890936 -0.0139238  0
0.0930057 -0.00611507  0
0.0947059 0.00351726  0
0.0936515 0.0152973  0
0.0892819 0.0293395  0
0.0811207 0.0453164  0
0.068911 0.0622397  0
0.0527531 0.0783604  0
0.0332115 0.0913318  0
0.0113485 0.0987172  0
-0.00955711 0.0863358  0
-0.0284957 0.0843792  0
-0.0467226 0.0801902  0
-0.063509 0.0736247  0
-0.0781575 0.0648603  0
-0.0901073 0.0543633  0
-0.0990215 0.0427793  0
-0.104817 0.0307957  0
-0.107633 0.0190043  0
-0.107752 0.00782678  0
-0.105519 -0.00248637  0
-0.101286 -0.0118437  0
-0.0953711 -0.0202732  0
-0.0880379 -0.0278818  0
-0.0794822 -0.034801  0
-0.0698352 -0.0411183  0
-0.0591907 -0.0468131  0
-0.0476488 -0.0517269  0
-0.0353567 -0.0555936  0
-0.0225288 -0.0581239  0
-0.00943826 -0.059119  0
0.00361453 -0.0585544  0
0.0163634 -0.0566878  0
0.0286381 -0.0539145  0
0.0403626 -0.0505598  0
0.0515044 -0.0468021  0
0.0620227 -0.0426535  0
0.0718283 -0.037983  0
0.0807568 -0.0325526  0
0.088556 -0.0260472  0
0.0948815 -0.0180844  0
0.0992941 -0.00821991  0
0.10126 0.00401471  0
0.100177 0.0189966  0
0.0954432 0.036802  0
0.0865862 0.0569306  0
0.0734005 0.0780793  0
0.0560687 0.0980686  0
0.0352375 0.114054  0
0.0120292 0.123124  0
-0.0115423 0.108545  0
-0.0343731 0.106079  0
-0.0561922 0.100595  0
-0.0759844 0.0918563  0
-0.0928328 0.0801835  0
-0.10608 0.0662952  0
-0.1154 0.0511386  0
-0.120821 0.0357105  0
-0.122674 0.0208167  0
-0.121447 0.00696369  0
-0.117649 -0.00559616  0
-0.11175 -0.0168084  0
-0.104166 -0.0267501  0
-0.0952474 -0.0355999  0
-0.0852562 -0.0435727  0
-0.0743664 -0.0508266  0
-0.062689 -0.0573698  0
-0.0503248 -0.0630196  0
-0.0374049 -0.0674565  0
-0.0241024 -0.0703351  0
-0.010622 -0.0714225  0
0.00281537 -0.0706851  0
0.0160139 -0.0684486  0
0.0288655 -0.0652244  0
0.0413396 -0.061393  0
0.0534107 -0.0571264  0
0.0650037 -0.0523856  0
0.0759644 -0.0469623  0
0.0860421 -0.0405247  0
0.0948872 -0.0326648  0
0.102063 -0.0229139  0
0.107058 -0.0107434  0
0.109281 0.00440244  0
0.108083 0.0229442  0
0.102838 0.0448864  0
0.0930933 0.0695006  0
0.0787189 0.0951223  0
0.0599931 0.119136  0
0.0376419 0.138222  0
0.0128398 0.149019  0
-0.0146623 0.135846  0
-0.0435392 0.132607  0
-0.0707358 0.125134  0
-0.0947469 0.113172  0
-0.114402 0.0974224  0
-0.129036 0.0789886  0
-0.138432 0.0592118  0
-0.142859 0.0395367  0
-0.142997 0.0210334  0
-0.139651 0.00422571  0
-0.133523 -0.0107321  0
-0.125193 -0.0238502  0
-0.115188 -0.0352459  0
-0.103985 -0.0451737  0
-0.0919679 -0.0539562  0
-0.0793901 -0.0618595  0
-0.0663989 -0.0689544  0
-0.0531006 -0.0750465  0
-0.0395993 -0.0797998  0
-0.0259809 -0.0828619  0
-0.0123009 -0.0840055  0
0.00137938 -0.0831692  0
0.0149874 -0.0807207  0
0.0285182 -0.0772845  0
0.0420096 -0.0732485  0
0.0554244 -0.068707  0
0.0685975 -0.0635214  0
0.0812439 -0.0573839  0
0.0929575 -0.049845  0
0.10322 -0.0404031  0
0.11145 -0.0285324  0
0.117055 -0.0136761  0
0.119429 0.00478685  0
0.117918 0.0273162  0
0.111901 0.0538241  0
0.100973 0.0832835  0
0.0851156 0.113618  0
0.0647181 0.14181  0
0.0405608 0.164103  0
0.0138328 0.176715  0
-0.019595 0.171187  0
-0.0578881 0.166542  0
-0.0931034 0.155655  0
-0.122958 0.138561  0
-0.146066 0.116842  0
-0.161979 0.0921606  0
-0.170788 0.0662897  0
-0.17321 0.0413531  0
-0.170543 0.0187333  0
-0.164073 -0.00124503  0
-0.154658 -0.0187577  0
-0.142905 -0.0338621  0
-0.129468 -0.0466312  0
-0.115036 -0.0573766  0
-0.1002 -0.0665615  0
-0.0853487 -0.0746379  0
-0.0706528 -0.0818178  0
-0.0562054 -0.0878836  0
-0.0420731 -0.0925511  0
-0.0282016 -0.0955554  0
-0.0143898 -0.096759  0
-0.000468497 -0.0959725  0
0.0136335 -0.0935827  0
0.0280662 -0.0903413  0
0.0430022 -0.0865746  0
0.0583929 -0.0821421  0
0.0739024 -0.0767248  0
0.0890312 -0.0699118  0
0.103126 -0.0610821  0
0.115377 -0.049636  0
0.124945 -0.0350532  0
0.131144 -0.0169167  0
0.133443 0.00539847  0
0.131282 0.0324177  0
0.124063 0.0640012  0
0.111441 0.0986989  0
0.0935949 0.133948  0
0.0710416 0.166473  0
0.0445504 0.19213  0
0.0152195 0.206788  0
-0.0271206 0.218973  0
-0.0795211 0.211539  0
-0.126257 0.194647  0
-0.164024 0.169227  0
-0.191294 0.138591  0
-0.208193 0.105261  0
-0.21542 0.071263  0
-0.214433 0.039854  0
-0.207606 0.0127774  0
-0.196875 -0.0104503  0
-0.183049 -0.0307538  0
-0.166568 -0.0480598  0
-0.148284 -0.0621149  0
-0.129306 -0.0732635  0
-0.110601 -0.0821757  0
-0.0927565 -0.0896804  0
-0.0758311 -0.096357  0
-0.0598103 -0.101773  0
-0.0447653 -0.105799  0
-0.0304867 -0.108418  0
-0.0163688 -0.109787  0
-0.00196576 -0.10923  0
0.0128677 -0.107222  0
0.0285135 -0.104741  0
0.0454709 -0.102029  0
0.063749 -0.0983177  0
0.0827018 -0.0929728  0
0.101522 -0.0855747  0
0.119211 -0.0751644  0
0.134459 -0.0610148  0
0.145933 -0.0426772  0
0.152805 -0.0203266  0
0.154802 0.00655006  0
0.1516 0.0386652  0
0.142558 0.0760519  0
0.127375 0.116489  0
0.106642 0.156773  0
0.0810108 0.193868  0
0.0510963 0.223176  0
0.0175894 0.240615  0
-0.0374497 0.284599  0
-0.108763 0.271697  0
-0.170571 0.245064  0
-0.218739 0.206773  0
-0.251199 0.162804  0
-0.269093 0.117872  0
-0.274032 0.0728506  0
-0.2682 0.0334807  0
-0.255783 0.00193913  0
-0.239667 -0.0244241  0
-0.220114 -0.0481258  0
-0.196982 -0.0682671  0
-0.171663 -0.0834761  0
-0.146231 -0.0942786  0
-0.122367 -0.101696  0
-0.100919 -0.107418  0
-0.0813078 -0.113122  0
-0.063105 -0.117198  0
-0.0466595 -0.119832  0
-0.0317527 -0.121537  0
-0.0171242 -0.12338  0
-0.00197792 -0.123152  0
0.0136958 -0.121773  0
0.0306136 -0.12072  0
0.0500607 -0.120422  0
0.0723308 -0.11844  0
0.0961765 -0.113616  0
0.120431 -0.105974  0
0.143681 -0.0936705  0
0.163795 -0.0758382  0
0.178486 -0.0519856  0
0.186669 -0.0240405  0
0.188615 0.00835324  0
0.184313 0.046397  0
0.172697 0.0910091  0
0.153584 0.137859  0
0.128719 0.183032  0
0.0986017 0.225386  0
0.0634251 0.258778  0
0.0223778 0.281597  0
-0.0481532 0.371244  0
-0.138643 0.348908  0
-0.216966 0.310008  0
-0.278625 0.253677  0
-0.318251 0.190009  0
-0.33969 0.132024  0
-0.344212 0.0701843  0
-0.332197 0.0203267  0
-0.312501 -0.0149921  0
-0.290136 -0.0439457  0
-0.263472 -0.0727924  0
-0.230663 -0.097514  0
-0.194833 -0.11335  0
-0.160474 -0.122168  0
-0.130499 -0.125619  0
-0.105986 -0.127428  0
-0.0841521 -0.13253  0
-0.0633856 -0.134731  0
-0.045214 -0.134887  0
-0.0299468 -0.134628  0
-0.0152441 -0.137593  0
0.000251738 -0.137553  0
0.0161111 -0.136877  0
0.0334387 -0.137834  0
0.0550314 -0.14232  0
0.0819559 -0.143709  0
0.111865 -0.140075  0
0.143468 -0.133345  0
0.174973 -0.119027  0
0.202931 -0.0965262  0
0.223385 -0.0644151  0
0.234852 -0.0292337  0
0.238541 0.00993865  0
0.234422 0.0552581  0
0.219252 0.11096  0
0.194016 0.164281  0
0.164597 0.212917  0
0.129241 0.262996  0
0.0876304 0.299977  0
0.0330557 0.338041  0
-0.049043 0.46947  0
-0.143819 0.437985  0
-0.235751 0.3932  0
-0.314223 0.312627  0
-0.364883 0.223359  0
-0.403701 0.160948  0
-0.416647 0.0607472  0
-0.393326 -0.00355082  0
-0.363496 -0.0386167  0
-0.335782 -0.068379  0
-0.302015 -0.106767  0
-0.255802 -0.140539  0
-0.205164 -0.154771  0
-0.160398 -0.157851  0
-0.125714 -0.152573  0
-0.101601 -0.147077  0
-0.0802352 -0.154058  0
-0.0576586 -0.154524  0
-0.0381305 -0.150772  0
-0.0234729 -0.146646  0
-0.0100697 -0.151659  0
0.00433162 -0.151363  0
0.0188317 -0.151405  0
0.0347487 -0.154529  0
0.0567111 -0.167158  0
0.0870057 -0.174067  0
0.121973 -0.172571  0
0.161174 -0.169631  0
0.202577 -0.153626  0
0.240865 -0.12615  0
0.269868 -0.0822261  0
0.287917 -0.0389167  0
0.297765 0.00810703  0
0.298817 0.0621782  0
0.277808 0.142241  0
0.24081 0.197254  0
0.208913 0.243279  0
0.170282 0.308638  0
0.128871 0.339375  0
0.0560003 0.428106  0
-0.0302942 0.549826  0
-0.0956717 0.519807  0
-0.182333 0.491479  0
-0.263591 0.375082  0
-0.331906 0.280883  0
-0.434224 0.245566  0
-0.468099 0.0244646  0
-0.413929 -0.0427395  0
-0.376142 -0.0650263  0
-0.350815 -0.0929941  0
-0.314921 -0.149795  0
-0.255395 -0.201232  0
-0.190459 -0.207634  0
-0.139769 -0.198426  0
-0.106091 -0.178343  0
-0.0867454 -0.162749  0
-0.0693732 -0.175108  0
-0.0482142 -0.175194  0
-0.0289295 -0.166898  0
-0.0148287 -0.157261  0
-0.0031083 -0.16415  0
0.00897662 -0.16334  0
0.021509 -0.164443  0
0.035945 -0.169827  0
0.0566391 -0.192499  0
0.0859754 -0.20634  0
0.121204 -0.208477  0
0.163345 -0.213049  0
0.209931 -0.19618  0
0.254517 -0.164454  0
0.2903 -0.106691  0
0.315941 -0.056124  0
0.335529 -0.00210462  0
0.351767 0.0571181  0
0.322002 0.200093  0
0.26191 0.238508  0
0.227204 0.270642  0
0.165917 0.382701  0
0.0987238 0.374923  0
0.0402747 0.524884  0
-0.00422996 0.584856  0
-0.00845993 0.555392  0
-0.0520382 0.549225  0
-0.151821 0.202381  0
-0.284149 0.159759  0
-0.347008 0.152205  0
-0.333744 -0.00483834  0
-0.331214 -0.069126  0
-0.325357 -0.0812764  0
-0.311739 -0.114681  0
-0.277607 -0.197127  0
-0.223703 -0.266324  0
-0.16882 -0.261353  0
-0.126919 -0.236291  0
-0.0978664 -0.202202  0
-0.0751391 -0.179956  0
-0.0577577 -0.191647  0
-0.0440011 -0.192562  0
-0.0287805 -0.183028  0
-0.0121047 -0.170901  0
0.00177615 -0.175105  0
0.0129799 -0.174668  0
0.0266566 -0.178317  0
0.0453836 -0.188108  0
0.0669796 -0.215501  0
0.0905072 -0.235195  0
0.120793 -0.244129  0
0.155713 -0.253451  0
0.191549 -0.237192  0
0.226083 -0.201554  0
0.258438 -0.136722  0
0.285512 -0.0778013  0
0.301849 -0.0153451  0
0.304511 0.0524665  0
0.290416 0.249612  0
0.26989 0.270613  0
0.260727 0.283413  0
0.208124 0.357566  0
0.0320042 0.196549  0
-0.0457561 0.282579  0
0.0126173 0.294543  0
0.00838732 0.277696  0
-0.00422996 0.277696  0
0 0  0
0 0  0
-0.166872 -0.00241917  0
-0.300335 -0.00241917  0
-0.291331 -0.0358277  0
-0.298699 -0.0423022  0
-0.243556 -0.0624852  0
-0.1919 -0.110485  0
-0.191101 -0.148192  0
-0.190327 -0.143087  0
-0.162919 -0.126686  0
-0.129196 -0.107087  0
-0.0830894 -0.0953556  0
-0.0532668 -0.0991367  0
-0.0475789 -0.0998465  0
-0.0388837 -0.0955589  0
-0.0174638 -0.0897433  0
0.00232104 -0.0901998  0
0.0158228 -0.0902882  0
0.0359018 -0.0930427  0
0.0654099 -0.0995335  0
0.0914889 -0.113069  0
0.1082 -0.124043  0
0.132238 -0.130762  0
0.152702 -0.135488  0
0.16495 -0.127751  0
0.174758 -0.108889  0
0.193921 -0.0764265  0
0.219455 -0.0443719  0
0.229877 -0.0103697  0
0.163654 0.0275994  0
0.178127 0.130487  0
0.258671 0.139888  0
0.258909 0.141706  0
0.130364 0.141706  0
0 0  0
0 0  0
0 0  0
0 0  0
0 0  0
0 0  0
0 0  0
0 0  0
0 0  0
0 0  0
0 0  0
0 0  0
0 0  0
0 0  0
0 0  0
0 0  0
0 0  0
0 0  0
0 0  0
0 0  0
0 0  0
0 0  0
0 0  0
0 0  0
0 0  0
0 0  0
0 0  0
0 0  0
0 0  0
0 0  0
0 0  0
0 0  0
0 0  0
0 0  0
0 0  0
0 0  0
0 0  0
0 0  0
0 0  0
0 0  0
0 0  0
0 0  0
0 0  0
0 0  0
0 0  0
0 0  0
0 0  0
0 0  0
0 0  0
0 0  0
0 0  0
0 0  0
0 0  0
0 0  0
0 0  0
0 0  0
0 0  0
0 0  0
0 0  0
0 0  0
0 0  0
0 0  0
0 0  0
0 0  0
0 0  0
0 0  0
0 0  0
0 0  0
0 0  0
0 0  0
0 0  0
0 0  0
0 0  0
0 0  0
0 0  0
0 0  0
0 0  0
0 0  0
0 0  0
0 0  0
0 0  0
0 0  0
0 0  0
0 0  0
0 0  0
0 0  0
0 0  0
0 0  0
0 0  0
0 0  0
0 0  0
0 0  0
0 0  0
0 0  0
0 0  0
0 0  0
0 0  0
0 0  0
0 0  0
0 0  0
0 0  0
0 0  0
0 0  0
0 0  0
0 0  0
0 0  0
0 0  0
0 0  0
0 0  0
0 0  0
0 0  0
0 0  0
0 0  0
0 0  0
0 0  0
0 0  0
0 0  0
0 0  0
0 0  0
0 0  0
0 0  0
0 0  0
0 0  0
0 0  0
0 0  0
0 0  0
0 0  0
0 0  0
0 0  0
0 0  0
0 0  0
0 0  0
0 0  0
0 0  0
0 0  0
0 0  0
0 0  0
0 0  0
0 0  0
0 0  0
0 0  0
0 0  0
0 0  0
0 0  0
0 0  0
0 0  0
0 0  0
0 0  0
0 0  0
0 0  0
0 0  0
0 0  0
0 0  0
0 0  0
0 0  0
0 0  0
0 0  0
0 0  0
0 0  0
0 0  0
0 0  0
0 0  0
0 0  0
0 0  0
0 0  0
0 0  0
0 0  0
0 0  0
0 0  0
0 0  0
0 0  0
0 0  0
0 0  0
0 0  0
0 0  0
0 0  0
0 0  0
0 0  0
0 0  0
0 0  0
0 0  0
0 0  0
0 0  0
0 0  0
0 0  0
0 0  0
0 0  0
0 0  0
0 0  0
0 0  0
0 0  0
0 0  0
0 0  0
0 0  0
0 0  0
0 0  0
0 0  0
0 0  0
0 0  0
0 0  0
0 0  0
0 0  0
0 0  0
0 0  0
0 0  0
0 0  0
0 0  0
0 0  0
0 0  0
0 0  0
0 0  0
0 0  0
0 0  0
0 0  0
0 0  0
0 0  0
0 0  0
0 0  0
0 0  0
0 0  0
0 0  0
0 0  0
0 0  0
0 0  0
0 0  0
0 0  0
0 0  0
0 0  0
0 0  0
0 0  0
0 0  0
0 0  0
0 0  0
0 0  0
0 0  0
0 0  0
0 0  0
0 0  0
0 0  0
0 0  0
0 0  0
0 0  0
0 0  0
0 0  0
0 0  0
0 0  0
0 0  0
0 0  0
0 0  0
0 0  0
0 0  0
0 0  0
0 0  0
0 0  0
0 0  0
0 0  0
0 0  0
0 0  0
0 0  0
0 0  0
0 0  0
0 0  0
0 0  0
0 0  0
0 0  0
0 0  0
0 0  0
0 0  0
0 0  0
0 0  0
0 0  0
0 0  0
0 0  0
0 0  0
0 0  0
0 0  0
0 0  0
0 0  0
0 0  0
0 0  0
0 0  0
0 0  0
0 0  0
0 0  0
0 0  0
0 0  0
0 0  0
0 0  0
0 0  0
0 0  0
0 0  0
0 0  0
0 0  0
0 0  0
0 0  0
0 0  0
0 0  0
0 0  0
0 0  0
0 0  0
0 0  0
0 0  0
0 0  0
0 0  0
0 0  0
0 0  0
0 0  0
0 0  0
0 0  0
0 0  0
0 0  0
0 0  0
0 0  0
0 0  0
0 0  0
0 0  0
0 0  0
0 0  0
0 0  0
0 0  0
0 0  0
0 0  0
0 0  0
0 0  0
0 0  0
0 0  0
0 0  0
0 0  0
0 0  0
0 0  0
0 0  0
0 0  0
0 0  0
0 0  0
0 0  0
0 0  0
0 0  0
0 0  0
0 0  0
0 0  0
0 0  0
0 0  0
0 0  0
0 0  0
0 0  0
0 0  0
0 0  0
0 0  0
0 0  0
0 0  0
0 0  0
0 0  0
0 0  0
0 0  0
0 0  0
0 0  0
0 0  0
0 0  0
0 0  0
0 0  0
0 0  0
0 0  0
0 0  0
0 0  0
0 0  0
0 0  0
0 0  0
0 0  0
0 0  0
0 0  0
0 0  0
0 0  0
0 0  0
0 0  0
0 0  0
0 0  0
0 0  0
0 0  0
0 0  0
0 0  0
0 0  0
0 0  0
0 0  0
0 0  0
0 0  0
0 0  0
0 0  0
0 0  0
0 0  0
0 0  0
0 0  0
0 0  0
0 0  0
0 0  0
0 0  0
0 0  0
0 0  0
0 0  0
0 0  0
0 0  0
0 0  0
0 0  0
0 0  0
0 0  0
0 0  0
0 0  0
0 0  0
0 0  0
0 0  0
0 0  0
0 0  0
0 0  0
0 0  0
0 0  0
0 0  0
0 0  0
0 0  0
0 0  0
0 0  0
0 0  0
0 0  0
0 0  0
0 0  0
0 0  0
0 0  0
0 0  0
0 0  0
0 0  0
0 0  0
0 0  0
0 0  0
0 0  0
0 0  0
0 0  0
0 0  0
0 0  0
0 0  0
0 0  0
0 0  0
0 0  0
0 0  0
0 0  0
0 0  0
0 0  0
0 0  0
0 0  0
0 0  0
0 0  0
0 0  0
0 0  0
0 0  0
0 0  0
0 0  0
0 0  0
0 0  0
0 0  0
0 0  0
0 0  0
0 0  0
0 0  0
0 0  0
0 0  0
0 0  0
0 0  0
0 0  0
0 0  0
0 0  0
0 0  0
0 0  0
0 0  0
0 0  0
0 0  0
0 0  0
0 0  0
0 0  0
0 0  0
0 0  0
0 0  0
0 0  0
0 0  0
0 0  0
0 0  0
0 0  0
0 0  0
0 0  0
0 0  0
0 0  0
0 0  0
0 0  0
0 0  0
0 0  0
0 0  0
0 0  0
0 0  0
0 0  0
0 0  0
0 0  0
0 0  0
0 0  0
0 0  0
0 0  0
0 0  0
0 0  0
0 0  0
0 0  0
0 0  0
0 0  0
0 0  0
0 0  0
0 0  0
0 0  0
0 0  0
0 0  0
0 0  0
0 0  0
0 0  0
0 0  0
0 0  0
0 0  0
0 0  0
0 0  0
0 0  0
0 0  0
0 0  0
0 0  0
0 0  0
0 0  0
0 0  0
0 0  0
0 0  0
0 0  0
0 0  0
0 0  0
0 0  0
0 0  0
0 0  0
0 0  0
0 0  0
0 0  0
0 0  0
0 0  0
0 0  0
0 0  0
0 0  0
0 0  0
0 0  0
0 0  0
0 0  0
0 0  0
0 0  0
0 0  0
0 0  0
0 0  0
0 0  0
0 0  0
0 0  0
0 0  0
0 0  0
0 0  0
0 0  0
0 0  0
0 0  0

SCALARS pressure double 1
LOOKUP_TABLE default
3.18701
3.18699
3.18699
3.18702
3.18714
3.18739
3.18779
3.18836
3.18909
3.18996
3.19092
3.19195
3.19299
3.19401
3.19498
3.19587
3.19664
3.19728
3.19777
3.19808
3.19821
3.19817
3.19798
3.19761
3.19707
3.19636
3.19551
3.19451
3.19341
3.19222
3.19098
3.18975
3.1886
3.18758
3.18677
3.18622
3.18595
3.18591
3.18603
3.18618
2.98316
2.98313
2.98311
2.98314
2.98326
2.98352
2.98395
2.98456
2.98534
2.98624
2.98725
2.9883
2.98937
2.9904
2.99137
2.99225
2.99301
2.99364
2.99412
2.99443
2.99455
2.99452
2.99434
2.99399
2.99346
2.99277
2.99193
2.99095
2.98985
2.98865
2.98739
2.98612
2.9849
2.98381
2.98291
2.98227
2.98191
2.9818
2.98186
2.98198
2.77539
2.77534
2.77529
2.7753
2.77543
2.77573
2.77623
2.77693
2.7778
2.77881
2.7799
2.78102
2.78212
2.78317
2.78414
2.78501
2.78576
2.78637
2.78683
2.78713
2.78725
2.78722
2.78706
2.78674
2.78624
2.78558
2.78477
2.78381
2.78271
2.78148
2.78017
2.77881
2.77747
2.77621
2.77512
2.77427
2.7737
2.77341
2.77333
2.77338
2.56364
2.56355
2.56346
2.56343
2.56357
2.56394
2.56456
2.56541
2.56646
2.56764
2.56887
2.57009
2.57125
2.57233
2.57329
2.57414
2.57486
2.57544
2.57587
2.57615
2.57626
2.57624
2.57611
2.57582
2.57538
2.57477
2.57401
2.57308
2.57198
2.57073
2.56934
2.56784
2.5663
2.56478
2.56338
2.56218
2.56126
2.56064
2.56031
2.56024
2.3479
2.34772
2.34752
2.34742
2.34756
2.34802
2.34884
2.34995
2.35127
2.3527
2.35414
2.35551
2.35675
2.35785
2.3588
2.35961
2.36027
2.3608
2.36119
2.36144
2.36155
2.36154
2.36145
2.36122
2.36085
2.36033
2.35963
2.35876
2.35768
2.3564
2.35491
2.35324
2.35142
2.34952
2.34766
2.34593
2.34446
2.34334
2.34263
2.34235
2.1281
2.12776
2.12734
2.12707
2.12718
2.1278
2.12892
2.13044
2.13218
2.13399
2.13573
2.13728
2.13862
2.13974
2.14066
2.1414
2.14198
2.14243
2.14275
2.14296
2.14306
2.14307
2.14303
2.14289
2.14263
2.14223
2.14165
2.14086
2.13983
2.13853
2.13694
2.13505
2.13287
2.13047
2.12795
2.12545
2.12316
2.12128
2.11999
2.1194
1.90419
1.90354
1.90268
1.90206
1.90209
1.90294
1.90457
1.90672
1.90911
1.91148
1.91363
1.91543
1.91688
1.91799
1.91884
1.91946
1.91993
1.92026
1.9205
1.92065
1.92073
1.92077
1.92082
1.92079
1.92068
1.92044
1.92003
1.91938
1.91844
1.91716
1.91547
1.91335
1.91074
1.90769
1.90427
1.90067
1.89716
1.89415
1.89199
1.89094
1.67611
1.67483
1.67309
1.67179
1.67164
1.6729
1.67538
1.67858
1.68197
1.68516
1.68785
1.68995
1.6915
1.69258
1.6933
1.69376
1.69405
1.69424
1.69436
1.69444
1.69451
1.69458
1.69473
1.69486
1.69494
1.69493
1.69474
1.69429
1.69351
1.69231
1.69058
1.68822
1.68514
1.68129
1.67669
1.67152
1.66624
1.66151
1.65805
1.65632
1.44375
1.44121
1.43777
1.43516
1.43468
1.43672
1.44074
1.44567
1.4506
1.45496
1.45836
1.46083
1.46247
1.46345
1.46396
1.4642
1.46428
1.46429
1.46427
1.46428
1.46433
1.46444
1.46469
1.465
1.46533
1.46559
1.4657
1.46553
1.46499
1.46395
1.46226
1.45976
1.45621
1.45145
1.44534
1.438
1.43007
1.42272
1.41731
1.41463
1.20685
1.20185
1.19507
1.19009
1.18914
1.19273
1.19966
1.20756
1.21486
1.22077
1.22509
1.22798
1.22966
1.23044
1.23067
1.23063
1.23049
1.23031
1.23015
1.23007
1.2301
1.23025
1.2306
1.23109
1.23169
1.23228
1.23272
1.23291
1.2327
1.23193
1.23041
1.2279
1.22401
1.21837
1.21046
1.2001
1.18817
1.17672
1.16843
1.16453
0.964738
0.955058
0.941771
0.932703
0.93127
0.938099
0.950786
0.963822
0.974606
0.982429
0.987847
0.99118
0.992814
0.99331
0.993179
0.99284
0.99252
0.992194
0.991905
0.991739
0.991756
0.99191
0.992321
0.992949
0.993795
0.994699
0.995485
0.996055
0.996217
0.995792
0.994553
0.992254
0.988372
0.982161
0.972351
0.957912
0.939809
0.921536
0.909074
0.904061
0.716404
0.698332
0.67174
0.656337
0.654954
0.66806
0.692851
0.71465
0.729855
0.739796
0.746227
0.749946
0.751445
0.75161
0.751119
0.750546
0.750185
0.749823
0.749452
0.749213
0.749218
0.749349
0.749728
0.75036
0.751346
0.752446
0.753441
0.754304
0.754739
0.754596
0.753658
0.751841
0.748589
0.742631
0.731428
0.711854
0.684172
0.653053
0.634921
0.630213
0.463009
0.431824
0.373936
0.351722
0.35222
0.374109
0.426812
0.46258
0.482146
0.493084
0.499524
0.503294
0.504647
0.504687
0.504094
0.503496
0.503333
0.503091
0.502717
0.502451
0.502502
0.502586
0.502769
0.503163
0.504027
0.50501
0.505873
0.506749
0.507141
0.506992
0.506212
0.505166
0.503382
0.499166
0.488569
0.46432
0.422777
0.361933
0.337815
0.337274
0.21691
0.173257
0.0242346
0.014538
0.0190022
0.031799
0.164095
0.216442
0.23627
0.243732
0.24675
0.249131
0.250742
0.251539
0.251721
0.25159
0.25203
0.251967
0.251637
0.251447
0.251809
0.251802
0.251569
0.251314
0.251698
0.252017
0.252073
0.252505
0.252501
0.252201
0.251561
0.251755
0.251953
0.250867
0.24493
0.223842
0.171602
0.0232751
0.00849054
0.0201512
0.00165736
0.00827433
0
0
0
0
-0.0167634
-0.00108945
-0.00147093
-0.0047661
-0.0119499
-0.0155582
-0.0125659
-0.00855354
-0.00589137
-0.00531239
-0.00328701
-0.00359261
-0.00406105
-0.00429552
-0.00261192
-0.0029273
-0.00385135
-0.00547162
-0.00530944
-0.00646212
-0.00877245
-0.00886797
-0.0092711
-0.00815635
-0.00807083
-0.00540537
-0.00262997
0.00141715
0.00589272
0.00440678
0.00678901
0
0
0
0
0
0
0
0
0
0
0
0
0
0
0
0
0
0
0
0
0
0
0
0
0
0
0
0
0
0
0
0
0
0
0
0
0
0
0
0
0
0
0
0
0
0
0
0
0
0
0
0
0
0
0
0
0
0
0
0
0
0
0
0
0
0
0
0
0
0
0
0
0
0
0
0
0
0
0
0
0
0
0
0
0
0
0
0
0
0
0
0
0
0
0
0
0
0
0
0
0
0
0
0
0
0
0
0
0
0
0
0
0
0
0
0
0
0
0
0
0
0
0
0
0
0
0
0
0
0
0
0
0
0
0
0
0
0
0
0
0
0
0
0
0
0
0
0
0
0
0
0
0
0
0
0
0
0
0
0
0
0
0
0
0
0
0
0
0
0
0
0
0
0
0
0
0
0
0
0
0
0
0
0
0
0
0
0
0
0
0
0
0
0
0
0
0
0
0
0
0
0
0
0
0
0
0
0
0
0
0
0
0
0
0
0
0
0
0
0
0
0
0
0
0
0
0
0
0
0
0
0
0
0
0
0
0
0
0
0
0
0
0
0
0
0
0
0
0
0
0
0
0
0
0
0
0
0
0
0
0
0
0
0
0
0
0
0
0
0
0
0
0
0
0
0
0
0
0
0
0
0
0
0
0
0
0
0
0
0
0
0
0
0
0
0
0
0
0
0
0
0
0
0
0
0
0
0
0
0
0
0
0
0
0
0
0
0
0
0
0
0
0
0
0
0
0
0
0
0
0
0
0
0
0
0
0
0
0
0
0
0
0
0
0
0
0
0
0
0
0
0
0
0
0
0
0
0
0
0
0
0
0
0
0
0
0
0
0
0
0
0
0
0
0
0
0
0
0
0
0
0
0
0
0
0
0
0
0
0
0
0
0
0
0
0
0
0
0
0
0
0
0
0
0
0
0
0
0
0
0
0
0
0
0
0
0
0
0
0
0
0
0
0
0
0
0
0
0
0
0
0
0
0
0
0
0
0
0
0
0
0
0
0
0
0
0
0
0
0
0
0
0
0
0
0
0
0
0
0
0
0
0
0
0
0
0
0
0
0
0
0
0
0
0
0
0
0
0
0
0
0
0
0
0
0
0
0
0
0
0
0
0
0
0
0
0
0
0
0
0
0
0
0
0
0
0
0
0
0
0
0
0
0
0
0
0
0
0
0
0
0
0
0
0
0
0
0
0
0
0
0
0
0
0
0
0
0
0
0
0
0
0
0
0
0
0
0
0
0
0
0
0
0
0
0
0
0
0
0
0
0
0
0
0
0
0
0
0
0
0
0
0
0
0
0
0
0
0
0
0
0
0
0
0
0
0
0
0
0
0
0
0
0
0
0
0
0
0
0
0
0
0
SCALARS rhs double 1
LOOKUP_TABLE default
-4.96473
-5.02315
-5.02428
-5.02465
-5.02472
-5.02463
-5.02453
-5.02451
-5.02466
-5.02501
-5.02556
-5.02631
-5.02722
-5.02827
-5.0294
-5.03056
-5.0317
-5.03278
-5.03369
-5.03445
-5.0343
-5.03399
-5.0349
-5.03465
-5.03425
-5.03378
-5.03327
-5.03276
-5.03225
-5.03177
-5.03136
-5.0311
-5.03108
-5.03151
-5.03261
-5.03469
-5.03792
-5.04209
-5.04632
-5.05174
-0.0277719
-0.0826436
-0.0824039
-0.0814918
-0.0803671
-0.0791782
-0.0780796
-0.0771916
-0.0765885
-0.0763022
-0.0763658
-0.0766856
-0.0771638
-0.0777961
-0.0785406
-0.0793481
-0.0801912
-0.0809783
-0.0816892
-0.0820683
-0.0818513
-0.0812668
-0.0821243
-0.0817297
-0.0812455
-0.0806951
-0.080119
-0.0795493
-0.0789825
-0.0784416
-0.0779729
-0.0776413
-0.0774898
-0.0778895
-0.0791067
-0.08147
-0.085166
-0.0899074
-0.0946898
-0.100513
-0.0332804
-0.0853693
-0.085081
-0.0841168
-0.0829169
-0.081638
-0.0804437
-0.0794625
-0.0787799
-0.0784265
-0.0784802
-0.0787678
-0.0791896
-0.0797701
-0.0804728
-0.081267
-0.0820902
-0.0829003
-0.0835228
-0.0839623
-0.0836657
-0.0830042
-0.0838912
-0.083462
-0.0829418
-0.0823935
-0.0818334
-0.0812791
-0.0807495
-0.0802495
-0.0798263
-0.0795692
-0.0794655
-0.0799829
-0.0813728
-0.0839158
-0.0877439
-0.0925265
-0.0972639
-0.103155
-0.0398439
-0.0885672
-0.0882424
-0.0872248
-0.0859232
-0.0845089
-0.0831615
-0.0820318
-0.0812165
-0.0807422
-0.0807939
-0.0809836
-0.081308
-0.0818093
-0.0824554
-0.0832065
-0.0840136
-0.0847773
-0.0853776
-0.0858607
-0.0853972
-0.0846933
-0.0855909
-0.0851196
-0.0845841
-0.0840323
-0.0835045
-0.0829935
-0.0825092
-0.0820722
-0.0817269
-0.0815773
-0.0815773
-0.0822824
-0.0839369
-0.0867512
-0.0907806
-0.0956315
-0.100314
-0.106333
-0.0482187
-0.0929951
-0.0926469
-0.0915584
-0.0901033
-0.0884668
-0.0868599
-0.085469
-0.0844097
-0.0837144
-0.0837834
-0.0837317
-0.0838889
-0.0842556
-0.0847917
-0.0854557
-0.086193
-0.086869
-0.087496
-0.087871
-0.0873481
-0.0864698
-0.0874529
-0.0869439
-0.0864147
-0.0859057
-0.0854306
-0.0849907
-0.0845793
-0.0842212
-0.0839822
-0.0839838
-0.0841424
-0.0850996
-0.0871118
-0.0902874
-0.0945853
-0.0995374
-0.104166
-0.11039
-0.0592733
-0.0994772
-0.0991111
-0.0979044
-0.0961931
-0.0941807
-0.0921204
-0.0902565
-0.0887481
-0.0876543
-0.0878037
-0.0872386
-0.0871063
-0.0872267
-0.0875487
-0.0880322
-0.0885853
-0.089158
-0.0896705
-0.0899279
-0.0893627
-0.0882331
-0.0893694
-0.0889002
-0.0884514
-0.0880589
-0.0877048
-0.0873726
-0.0870646
-0.0868126
-0.0867073
-0.0869059
-0.0872637
-0.0885254
-0.0909751
-0.0945803
-0.0991899
-0.104263
-0.108842
-0.115361
-0.0750175
-0.109816
-0.109349
-0.107849
-0.105649
-0.102963
-0.100072
-0.0973234
-0.0949854
-0.0935817
-0.0931942
-0.0919977
-0.0913517
-0.0910165
-0.0909303
-0.0910325
-0.0912478
-0.091554
-0.091782
-0.0918907
-0.0913375
-0.0898617
-0.0913038
-0.0910129
-0.0908197
-0.0906878
-0.0905693
-0.0904302
-0.0902795
-0.0901821
-0.0902687
-0.0907461
-0.0913065
-0.0929178
-0.0958817
-0.0999407
-0.10483
-0.10997
-0.114456
-0.121358
-0.100093
-0.127983
-0.126964
-0.124542
-0.121243
-0.11727
-0.112792
-0.10834
-0.104456
-0.103255
-0.100984
-0.0989473
-0.0973863
-0.096206
-0.0953376
-0.0947201
-0.094327
-0.0940513
-0.0938244
-0.0936679
-0.0932954
-0.0913513
-0.0933499
-0.0934794
-0.0938321
-0.0942391
-0.0945704
-0.0948114
-0.0949812
-0.0951894
-0.0956346
-0.0966119
-0.0973496
-0.0994093
-0.103038
-0.107518
-0.112467
-0.1174
-0.121549
-0.128894
-0.144847
-0.162385
-0.159167
-0.153874
-0.147835
-0.141299
-0.13374
-0.125945
-0.119181
-0.119202
-0.113292
-0.109634
-0.106428
-0.10365
-0.101295
-0.0994221
-0.0980256
-0.0968047
-0.0958856
-0.0953694
-0.0953166
-0.0930686
-0.0956649
-0.0966114
-0.0979993
-0.0994547
-0.100674
-0.101759
-0.102726
-0.103719
-0.104976
-0.106996
-0.107918
-0.110836
-0.115601
-0.120412
-0.124793
-0.12878
-0.131867
-0.139817
-0.229505
-0.227983
-0.217947
-0.204913
-0.191949
-0.180625
-0.167448
-0.153202
-0.144306
-0.1406
-0.132245
-0.126249
-0.120033
-0.11418
-0.109011
-0.105085
-0.102482
-0.100014
-0.0981119
-0.0971658
-0.0974422
-0.0955185
-0.0982364
-0.100452
-0.103752
-0.107256
-0.110183
-0.1132
-0.116142
-0.119162
-0.122167
-0.126163
-0.127474
-0.132674
-0.139936
-0.144773
-0.147227
-0.14916
-0.149748
-0.159979
-0.379186
-0.338043
-0.312594
-0.283308
-0.254177
-0.23782
-0.216695
-0.190687
-0.184992
-0.165844
-0.159838
-0.151681
-0.139924
-0.128246
-0.11769
-0.110581
-0.107643
-0.103942
-0.100608
-0.0988512
-0.099785
-0.0977234
-0.100957
-0.104172
-0.110974
-0.118348
-0.124087
-0.131153
-0.138072
-0.145419
-0.15112
-0.157635
-0.160644
-0.171918
-0.185094
-0.187489
-0.185766
-0.186812
-0.183503
-0.208855
-0.566558
-0.458895
-0.416321
-0.357454
-0.299575
-0.30661
-0.277688
-0.237202
-0.20541
-0.189525
-0.194763
-0.190781