# vtk DataFile Version 4.0
Nusif Fluid VTK output
ASCII
DATASET STRUCTURED_POINTS
DIMENSIONS 40 30 1
ORIGIN 0 0 0 
SPACING 0.2 0.2 1
POINT_DATA 1200 

VECTORS velocity double
0.00911267 -0.0082483  0
0.0269815 -0.00794937  0
0.0439113 -0.00736827  0
0.0594277 -0.00653851  0
0.0730784 -0.00550455  0
0.0845053 -0.00431659  0
0.0934519 -0.0030257  0
0.0997622 -0.00168157  0
0.103377 -0.000331096  0
0.104327 0.000982762  0
0.102724 0.00222072  0
0.0987566 0.00334729  0
0.0926771 0.00433234  0
0.0847919 0.0051529  0
0.0754435 0.00579553  0
0.0649892 0.00625856  0
0.0537771 0.00655335  0
0.0421204 0.00670303  0
0.0302784 0.00673851  0
0.0184487 0.00669052  0
0.0067772 0.00658008  0
-0.00461626 0.00641207  0
-0.0156014 0.00617135  0
-0.0260055 0.00583052  0
-0.035597 0.00535821  0
-0.0440884 0.00472985  0
-0.0511565 0.00393421  0
-0.0564714 0.00297613  0
-0.0597293 0.00187662  0
-0.0606838 0.000672146  0
-0.0591776 -0.000584621  0
-0.0551777 -0.00182195  0
-0.0488211 -0.00294186  0
-0.0404763 -0.00381039  0
-0.030817 -0.00425665  0
-0.020865 -0.00410335  0
-0.0119123 -0.00325749  0
-0.00520969 -0.00185343  0
-0.00142459 -0.000340018  0
-0.000144379 0.000651433  0
0.00941134 -0.0251029  0
0.0278612 -0.0241865  0
0.0453218 -0.0224081  0
0.0612908 -0.0198735  0
0.0753 -0.0167212  0
0.0869842 -0.013105  0
0.0960867 -0.00918187  0
0.102457 -0.00510252  0
0.106041 -0.0010076  0
0.106878 0.00297379  0
0.105089 0.00672295  0
0.100869 0.0101323  0
0.0944863 0.0131099  0
0.0862624 0.0155844  0
0.0765613 0.0175136  0
0.0657645 0.0188915  0
0.0542435 0.0197534  0
0.0423289 0.0201739  0
0.0302854 0.0202527  0
0.0183008 0.0200898  0
0.00649709 0.0197549  0
-0.00503808 0.0192642  0
-0.0162036 0.0185676  0
-0.026842 0.0175738  0
-0.036719 0.0161798  0
-0.0455292 0.0143055  0
-0.0529224 0.0119146  0
-0.0585392 0.0090216  0
-0.0620486 0.00569176  0
-0.0631822 0.00203765  0
-0.0617682 -0.00177844  0
-0.0577686 -0.00553615  0
-0.0513259 -0.00893618  0
-0.0428231 -0.0115731  0
-0.0329512 -0.012935  0
-0.0227419 -0.0124963  0
-0.0134827 -0.00998658  0
-0.0064094 -0.00581063  0
-0.0021822 -0.00130551  0
-0.000403871 0.00164799  0
0.0100279 -0.0429361  0
0.0296737 -0.0413428  0
0.0482211 -0.0382601  0
0.0651115 -0.0338818  0
0.079844 -0.028456  0
0.0920419 -0.0222542  0
0.101452 -0.0155475  0
0.107935 -0.00859187  0
0.111452 -0.00162276  0
0.112057 0.00514452  0
0.109885 0.011511  0
0.105152 0.0172939  0
0.0981481 0.022333  0
0.0892299 0.0265011  0
0.0788053 0.0297203  0
0.0673071 0.0319775  0
0.0551563 0.033337  0
0.0427207 0.0339382  0
0.030278 0.0339723  0
0.0179958 0.0336344  0
0.0059436 0.0330635  0
-0.00586175 0.0322932  0
-0.0173832 0.0312223  0
-0.0284956 0.0296662  0
-0.0389577 0.0274225  0
-0.0484256 0.0243366  0
-0.0564921 0.0203384  0
-0.0627353 0.0154528  0
-0.0667665 0.00979559  0
-0.0682704 0.00356564  0
-0.0670448 -0.00295207  0
-0.0630401 -0.00937292  0
-0.0564083 -0.0151802  0
-0.0475612 -0.0196853  0
-0.0372268 -0.0220355  0
-0.0264654 -0.021373  0
-0.0165673 -0.0172737  0
-0.00874814 -0.0104225  0
-0.00365299 -0.00302243  0
-0.000906857 0.00183409  0
0.0109996 -0.0623662  0
0.0325247 -0.0599889  0
0.0527667 -0.0554094  0
0.0710772 -0.0489398  0
0.0869092 -0.0409695  0
0.0998749 -0.0319116  0
0.109733 -0.0221656  0
0.116367 -0.0120986  0
0.119767 -0.00204083  0
0.120008 0.00770918  0
0.117246 0.0168723  0
0.111719 0.0251847  0
0.103752 0.0324053  0
0.0937554 0.0383365  0
0.0822058 0.0428518  0
0.0696172 0.0459258  0
0.0564919 0.0476579  0
0.0432611 0.0482767  0
0.0302255 0.0481052  0
0.0175203 0.0474818  0
0.00512749 0.0466537  0
-0.00705793 0.0456861  0
-0.0191072 0.0443922  0
-0.0309474 0.0424406  0
-0.0423248 0.0394789  0
-0.05283 0.0352441  0
-0.0619607 0.0296185  0
-0.0691946 0.0226399  0
-0.0740515 0.0144862  0
-0.0761428 0.00545973  0
-0.075215 -0.00401051  0
-0.0711966 -0.0133486  0
-0.0642523 -0.0217918  0
-0.0548382 -0.0283461  0
-0.0437451 -0.0318134  0
-0.0320876 -0.0310254  0
-0.0211759 -0.0254423  0
-0.0122093 -0.0160508  0
-0.00581483 -0.00589494  0
-0.00164359 0.000778082  0
0.0123851 -0.0841632  0
0.0365783 -0.0808282  0
0.0591988 -0.0744444  0
0.0794697 -0.0654986  0
0.0967878 -0.0545737  0
0.110763 -0.0422618  0
0.121188 -0.0291113  0
0.127993 -0.0156056  0
0.131209 -0.00216317  0
0.130942 0.0108435  0
0.12737 0.0230588  0
0.120754 0.0341286  0
0.11146 0.0437099  0
0.0999663 0.0515094  0
0.086851 0.0573313  0
0.072746 0.0611278  0
0.0582719 0.0630433  0
0.0439518 0.0634302  0
0.0301223 0.0628048  0
0.0168735 0.061724  0
0.00405787 0.0606076  0
-0.00861417 0.059577  0
-0.0213774 0.0583008  0
-0.0342333 0.0562147  0
-0.0469024 0.0527376  0
-0.0588756 0.0474496  0
-0.0695153 0.0401687  0
-0.078157 0.0309503  0
-0.0841911 0.0200513  0
-0.0871224 0.00790134  0
-0.0866213 -0.00489716  0
-0.0825812 -0.0175366  0
-0.075181 -0.0289647  0
-0.0649391 -0.0378456  0
-0.0527385 -0.0426241  0
-0.0397811 -0.0418461  0
-0.0274228 -0.0349079  0
-0.016858 -0.0231329  0
-0.00869775 -0.0103838  0
-0.00262231 -0.00199595  0
0.0142597 -0.109231  0
0.0420427 -0.104669  0
0.0678153 -0.0960153  0
0.0906261 -0.084028  0
0.109812 -0.0695675  0
0.125011 -0.0534612  0
0.136085 -0.0364307  0
0.14305 -0.0190751  0
0.146005 -0.00188427  0
0.145096 0.01472  0
0.14051 0.0303215  0
0.132513 0.04446  0
0.121515 0.0566524  0
0.108088 0.0664688  0
0.092944 0.0736138  0
0.0768711 0.0780056  0
0.0606446 0.0798486  0
0.0449071 0.0796651  0
0.0300444 0.0782449  0
0.0160911 0.0764686  0
0.0027275 0.0750247  0
-0.0105891 0.0741307  0
-0.0243114 0.0732146  0
-0.0385284 0.071355  0
-0.0529206 0.0676394  0
-0.0668478 0.0614285  0
-0.0794933 0.0524546  0
-0.0900078 0.0407999  0
-0.097616 0.026823  0
-0.101683 0.0111069  0
-0.101773 -0.00553579  0
-0.0977214 -0.0220116  0
-0.0897172 -0.0369161  0
-0.078357 -0.0485184  0
-0.0646481 -0.0548829  0
-0.0499178 -0.0542969  0
-0.0355986 -0.0461565  0
-0.0228986 -0.032171  0
-0.0124213 -0.017005  0
-0.00388207 -0.00701115  0
0.0166937 -0.138619  0
0.0491095 -0.132426  0
0.0788795 -0.120825  0
0.10482 -0.104995  0
0.12622 -0.0862116  0
0.142794 -0.0656157  0
0.154543 -0.0441254  0
0.161623 -0.0224508  0
0.164249 -0.00111584  0
0.162614 0.0194695  0
0.156877 0.0388703  0
0.147272 0.0564883  0
0.134239 0.0716302  0
0.118466 0.0836669  0
0.10084 0.092163  0
0.0823495 0.0969962  0
0.0639544 0.0984567  0
0.0464292 0.0972969  0
0.03021 0.0946725  0
0.0152682 0.0919135  0
0.00108048 0.0901082  0
-0.0131921 0.0896131  0
-0.0282434 0.0894823  0
-0.0442533 0.08829  0
-0.0608524 0.0846711  0
-0.0772464 0.0776927  0
-0.0924127 0.0669763  0
-0.105291 0.0526446  0
-0.114914 0.0351829  0
-0.120475 0.0153475  0
-0.121386 -0.00580287  0
-0.11739 -0.0268197  0
-0.108669 -0.0458616  0
-0.0958995 -0.0607301  0
-0.0802402 -0.0690672  0
-0.0631838 -0.0689269  0
-0.0462743 -0.0597826  0
-0.0307564 -0.0437902  0
-0.017245 -0.0264017  0
-0.00550953 -0.0149164  0
0.0197094 -0.17347  0
0.0578387 -0.165084  0
0.0924546 -0.149585  0
0.122058 -0.128812  0
0.14591 -0.104678  0
0.163896 -0.0787417  0
0.176244 -0.0521286  0
0.183344 -0.0256601  0
0.185605 0.000173118  0
0.183287 0.0251021  0
0.176442 0.0487875  0
0.165157 0.0704307  0
0.149865 0.0889814  0
0.131412 0.103512  0
0.110925 0.113403  0
0.0896362 0.118506  0
0.0686976 0.119252  0
0.0489913 0.116705  0
0.0309731 0.112474  0
0.0145389 0.10846  0
-0.00103328 0.106294  0
-0.0168396 0.106478  0
-0.0337674 0.107567  0
-0.0520728 0.107491  0
-0.0713562 0.104323  0
-0.0907017 0.0967495  0
-0.108883 0.0842357  0
-0.124616 0.066964  0
-0.136743 0.0455802  0
-0.144265 0.0210001  0
-0.146384 -0.00545871  0
-0.142665 -0.0319127  0
-0.133219 -0.0559703  0
-0.118782 -0.0748615  0
-0.100687 -0.085724  0
-0.0806509 -0.0863959  0
-0.0603712 -0.0765361  0
-0.0411419 -0.0588171  0
-0.0236129 -0.0394481  0
-0.00765445 -0.0265968  0
0.0232548 -0.214894  0
0.0680936 -0.203607  0
0.108306 -0.182929  0
0.141923 -0.155727  0
0.168222 -0.124953  0
0.187427 -0.092697  0
0.200103 -0.0602367  0
0.206981 -0.028569  0
0.208843 0.00191888  0
0.206094 0.0313859  0
0.198476 0.0599275  0
0.185656 0.0863585  0
0.168031 0.108933  0
0.146698 0.126309  0
0.123111 0.137646  0
0.0987944 0.142833  0
0.0750791 0.142545  0
0.0528814 0.138283  0
0.0325727 0.132189  0
0.0139271 0.126791  0
-0.00389993 0.124328  0
-0.022076 0.125392  0
-0.0415123 0.127983  0
-0.0625364 0.129369  0
-0.0848493 0.127004  0
-0.107523 0.11905  0
-0.129151 0.104707  0
-0.148228 0.0842641  0
-0.163466 0.0586058  0
-0.173697 0.028688  0
-0.17776 -0.00400433  0
-0.174832 -0.0370549  0
-0.164813 -0.0673333  0
-0.148469 -0.0913192  0
-0.127375 -0.105495  0
-0.103589 -0.107486  0
-0.0790203 -0.097334  0
-0.0549772 -0.0783305  0
-0.0321286 -0.0573509  0
-0.0105245 -0.043295  0
0.027278 -0.2639  0
0.0797592 -0.248917  0
0.126204 -0.221323  0
0.163841 -0.185633  0
0.192124 -0.146677  0
0.21195 -0.107051  0
0.224253 -0.0679083  0
0.230225 -0.0307927  0
0.231435 0.00402377  0
0.228692 0.0377278  0
0.220972 0.071879  0
0.206842 0.104312  0
0.186721 0.131683  0
0.162318 0.152253  0
0.135567 0.164998  0
0.108277 0.170046  0
0.0818909 0.168394  0
0.057249 0.162234  0
0.0344375 0.15432  0
0.0129875 0.147717  0
-0.00792957 0.145107  0
-0.0291608 0.146981  0
-0.0513723 0.151001  0
-0.075075 0.154037  0
-0.100376 0.152909  0
-0.126572 0.144973  0
-0.152075 0.128872  0
-0.175075 0.105131  0
-0.194319 0.0751755  0
-0.208566 0.0395502  0
-0.2159 -0.000515533  0
-0.214618 -0.0418009  0
-0.204279 -0.0799922  0
-0.185828 -0.110501  0
-0.161221 -0.12906  0
-0.132927 -0.133046  0
-0.103129 -0.123186  0
-0.0730914 -0.103603  0
-0.0433868 -0.0816755  0
-0.0143319 -0.0666736  0
0.0319276 -0.321593  0
0.0933166 -0.302108  0
0.146678 -0.264991  0
0.187754 -0.217731  0
0.216728 -0.16889  0
0.23583 -0.120819  0
0.246174 -0.0738406  0
0.249531 -0.0312427  0
0.249152 0.00659026  0
0.24701 0.0429938  0
0.240179 0.0841128  0
0.224383 0.124953  0
0.200602 0.157894  0
0.172436 0.181563  0
0.142686 0.195142  0
0.113048 0.199785  0
0.0847337 0.196311  0
0.0585159 0.188132  0
0.0339773 0.178728  0
0.0102135 0.17148  0
-0.0134536 0.168885  0
-0.0371061 0.171043  0
-0.0610114 0.176012  0
-0.0861946 0.180866  0
-0.113724 0.181863  0
-0.143547 0.174988  0
-0.173675 0.157438  0
-0.201362 0.130201  0
-0.225739 0.096674  0
-0.246008 0.0555154  0
-0.258454 0.00624604  0
-0.259615 -0.0457364  0
-0.249229 -0.0938354  0
-0.229239 -0.132152  0
-0.201893 -0.156413  0
-0.169101 -0.163831  0
-0.133229 -0.155122  0
-0.096 -0.135983  0
-0.0577771 -0.114273  0
-0.0192137 -0.098744  0
0.0374019 -0.389422  0
0.109456 -0.364751  0
0.17023 -0.313542  0
0.212772 -0.249859  0
0.239747 -0.189771  0
0.25572 -0.132073  0
0.261334 -0.075604  0
0.259193 -0.0277563  0
0.255423 0.0101938  0
0.254582 0.0453142  0
0.249986 0.0961606  0
0.230977 0.150652  0
0.199904 0.189993  0
0.165554 0.214925  0
0.133591 0.226439  0
0.1036 0.231067  0
0.0749137 0.224979  0
0.0491275 0.214419  0
0.0254681 0.20359  0
0.00259607 0.196205  0
-0.0201136 0.193488  0
-0.0421518 0.195081  0
-0.0638711 0.200548  0
-0.0873549 0.207945  0
-0.115416 0.213322  0
-0.149507 0.210389  0
-0.186319 0.191921  0
-0.219158 0.159188  0
-0.24849 0.124337  0
-0.276768 0.07934  0
-0.295862 0.0169006  0
-0.299169 -0.0489821  0
-0.289522 -0.107682  0
-0.2718 -0.153076  0
-0.247642 -0.184051  0
-0.213342 -0.200344  0
-0.170423 -0.194457  0
-0.124355 -0.177001  0
-0.0755837 -0.157303  0
-0.0252151 -0.1417  0
0.0421204 -0.467456  0
0.124872 -0.438567  0
0.190837 -0.363532  0
0.228606 -0.27725  0
0.248988 -0.206806  0
0.259219 -0.138309  0
0.258308 -0.0711375  0
0.2498 -0.0186417  0
0.241826 0.0157578  0
0.241595 0.0437559  0
0.240019 0.106826  0
0.218941 0.183007  0
0.17605 0.234539  0
0.128465 0.255253  0
0.0967557 0.252725  0
0.0711603 0.263311  0
0.0427535 0.252772  0
0.019486 0.238627  0
0.0011319 0.224344  0
-0.0133344 0.215737  0
-0.0255608 0.211839  0
-0.0363392 0.212493  0
-0.0478561 0.219317  0
-0.0638937 0.231641  0
-0.0899294 0.246665  0
-0.131238 0.255386  0
-0.181031 0.236468  0
-0.216972 0.186359  0
-0.243991 0.156453  0
-0.281157 0.115602  0
-0.308106 0.0296134  0
-0.311313 -0.0522473  0
-0.304714 -0.117729  0
-0.297912 -0.164619  0
-0.292142 -0.199502  0
-0.266319 -0.24208  0
-0.215516 -0.243505  0
-0.158436 -0.228161  0
-0.0969572 -0.213452  0
-0.0322458 -0.197691  0
0.0384385 -0.546538  0
0.12117 -0.522027  0
0.177468 -0.40014  0
0.19816 -0.297639  0
0.212246 -0.21942  0
0.21908 -0.141294  0
0.219164 -0.0658601  0
0.214983 -0.00976588  0
0.208961 0.0223432  0
0.202834 0.044994  0
0.199932 0.111531  0
0.194565 0.206211  0
0.14127 0.308989  0
0.063011 0.30885  0
0.0407442 0.256043  0
0.0251718 0.304099  0
-0.0111442 0.279647  0
-0.0322988 0.259116  0
-0.040623 0.233476  0
-0.0362621 0.219654  0
-0.0245709 0.2114  0
-0.01 0.212082  0
0.000117792 0.224068  0
-0.000450629 0.246435  0
-0.0202231 0.280615  0
-0.0756013 0.321055  0
-0.155294 0.303218  0
-0.187824 0.191012  0
-0.187365 0.181291  0
-0.233976 0.176737  0
-0.275691 0.0386076  0
-0.27658 -0.0556813  0
-0.276514 -0.119493  0
-0.286346 -0.158359  0
-0.307272 -0.189139  0
-0.30556 -0.278509  0
-0.256091 -0.305145  0
-0.190493 -0.286259  0
-0.119535 -0.284852  0
-0.0395661 -0.268034  0
0.0107435 -0.594984  0
0.0214869 -0.565589  0
0.0525705 -0.488867  0
0.104497 -0.153163  0
0.130448 -0.11241  0
0.138925 -0.0713641  0
0.151267 -0.0322547  0
0.169961 -0.00346778  0
0.181528 0.0127672  0
0.159852 0.0239653  0
0.118091 0.0557483  0
0.0718717 0.105806  0
0.0788584 0.348417  0
0.113825 0.339949  0
0.0980116 0.264493  0
0.0174749 0.393226  0
-0.055395 0.301911  0
-0.0741985 0.279751  0
-0.0752329 0.225139  0
-0.0527701 0.204108  0
-0.0153152 0.18074  0
0.0313327 0.184461  0
0.0663749 0.209465  0
0.0799499 0.250965  0
0.0688005 0.309938  0
-0.0159015 0.43401  0
-0.125143 0.380663  0
-0.166304 0.188723  0
-0.17121 0.189491  0
-0.134815 0.202685  0
-0.139068 0.0205908  0
-0.197053 -0.0286835  0
-0.230124 -0.0589363  0
-0.25707 -0.0750743  0
-0.235878 -0.0882121  0
-0.206838 -0.316195  0
-0.210201 -0.339454  0
-0.190029 -0.336252  0
-0.129409 -0.36497  0
-0.0444802 -0.351347  0
-0.00932602 -0.302864  0
0.00141743 -0.282794  0
0.0107435 -0.282794  0
0 0  0
0 0  0
0 0  0
0 0  0
0 0  0
0 0  0
0 0  0
0 0  0
0 0  0
0.0569124 0.169975  0
0.143646 0.169975  0
0.0390113 0.140153  0
-0.0348785 0.384371  0
0.025688 0.310792  0
-0.0140881 0.330919  0
-0.0431901 0.206313  0
-0.0354582 0.195679  0
-0.00268148 0.121875  0
0.0613323 0.135601  0
0.103861 0.183689  0
0.0857784 0.283449  0
0.0534616 0.322386  0
0.0273264 0.414691  0
0.0315406 0.208458  0
-0.0525907 0.096815  0
-0.169141 0.0947456  0
-0.085605 0.0947456  0
0 0  0
0 0  0
0 0  0
0 0  0
0 0  0
-0.105101 -0.169727  0
-0.201716 -0.169727  0
-0.157047 -0.178212  0
-0.109707 -0.202709  0
-0.049276 -0.197914  0
0 0  0
0 0  0
0 0  0
0 0  0
0 0  0
0 0  0
0 0  0
0 0  0
0 0  0
0 0  0
0 0  0
0 0  0
0 0  0
0 0  0
0 0  0
0.012844 0.155396  0
-0.00426341 0.155396  0
-0.00151052 0.283535  0
0.0311938 0.196374  0
0.0361817 0.194368  0
0.0433098 0.0847504  0
0.0456935 0.107797  0
0.045937 0.170188  0
0.0463891 0.242977  0
0.0501514 0.161193  0
0.0267308 0.161193  0
0 0  0
0 0  0
0 0  0
0 0  0
0 0  0
0 0  0
0 0  0
0 0  0
0 0  0
0 0  0
0 0  0
0 0  0
0 0  0
0 0  0
0 0  0
0 0  0
0 0  0
0 0  0
0 0  0
0 0  0
0 0  0
0 0  0
0 0  0
0 0  0
0 0  0
0 0  0
0 0  0
0 0  0
0 0  0
0 0  0
0 0  0
0.0155969 0.0981871  0
0.0346909 0.0981871  0
0.0930637 0.09469  0
0.0842233 0.0413051  0
0.00190462 0.0537765  0
0.0146195 0.085094  0
0.0229685 0.085094  0
0 0  0
0 0  0
0 0  0
0 0  0
0 0  0
0 0  0
0 0  0
0 0  0
0 0  0
0 0  0
0 0  0
0 0  0
0 0  0
0 0  0
0 0  0
0 0  0
0 0  0
0 0  0
0 0  0
0 0  0
0 0  0
0 0  0
0 0  0
0 0  0
0 0  0
0 0  0
0 0  0
0 0  0
0 0  0
0 0  0
0 0  0
0 0  0
0 0  0
0 0  0
0 0  0
0 0  0
0 0  0
0 0  0
0 0  0
0 0  0
0 0  0
0 0  0
0 0  0
0 0  0
0 0  0
0 0  0
0 0  0
0 0  0
0 0  0
0 0  0
0 0  0
0 0  0
0 0  0
0 0  0
0 0  0
0 0  0
0 0  0
0 0  0
0 0  0
0 0  0
0 0  0
0 0  0
0 0  0
0 0  0
0 0  0
0 0  0
0 0  0
0 0  0
0 0  0
0 0  0
0 0  0
0 0  0
0 0  0
0 0  0
0 0  0
0 0  0
0 0  0
0 0  0
0 0  0
0 0  0
0 0  0
0 0  0
0 0  0
0 0  0
0 0  0
0 0  0
0 0  0
0 0  0
0 0  0
0 0  0
0 0  0
0 0  0
0 0  0
0 0  0
0 0  0
0 0  0
0 0  0
0 0  0
0 0  0
0 0  0
0 0  0
0 0  0
0 0  0
0 0  0
0 0  0
0 0  0
0 0  0
0 0  0
0 0  0
0 0  0
0 0  0
0 0  0
0 0  0
0 0  0
0 0  0
0 0  0
0 0  0
0 0  0
0 0  0
0 0  0
0 0  0
0 0  0
0 0  0
0 0  0
0 0  0
0 0  0
0 0  0
0 0  0
0 0  0
0 0  0
0 0  0
0 0  0
0 0  0
0 0  0
0 0  0
0 0  0
0 0  0
0 0  0
0 0  0
0 0  0
0 0  0
0 0  0
0 0  0
0 0  0
0 0  0
0 0  0
0 0  0
0 0  0
0 0  0
0 0  0
0 0  0
0 0  0
0 0  0
0 0  0
0 0  0
0 0  0
0 0  0
0 0  0
0 0  0
0 0  0
0 0  0
0 0  0
0 0  0
0 0  0
0 0  0
0 0  0
0 0  0
0 0  0
0 0  0
0 0  0
0 0  0
0 0  0
0 0  0
0 0  0
0 0  0
0 0  0
0 0  0
0 0  0
0 0  0
0 0  0
0 0  0
0 0  0
0 0  0
0 0  0
0 0  0
0 0  0
0 0  0
0 0  0
0 0  0
0 0  0
0 0  0
0 0  0
0 0  0
0 0  0
0 0  0
0 0  0
0 0  0
0 0  0
0 0  0
0 0  0
0 0  0
0 0  0
0 0  0
0 0  0
0 0  0
0 0  0
0 0  0
0 0  0
0 0  0
0 0  0
0 0  0
0 0  0
0 0  0
0 0  0
0 0  0
0 0  0
0 0  0
0 0  0
0 0  0
0 0  0
0 0  0
0 0  0
0 0  0
0 0  0
0 0  0
0 0  0
0 0  0
0 0  0
0 0  0
0 0  0
0 0  0
0 0  0
0 0  0
0 0  0
0 0  0
0 0  0
0 0  0
0 0  0
0 0  0
0 0  0
0 0  0
0 0  0
0 0  0
0 0  0
0 0  0
0 0  0
0 0  0
0 0  0
0 0  0
0 0  0
0 0  0
0 0  0
0 0  0
0 0  0
0 0  0
0 0  0
0 0  0
0 0  0
0 0  0
0 0  0
0 0  0
0 0  0
0 0  0
0 0  0
0 0  0
0 0  0
0 0  0
0 0  0
0 0  0
0 0  0
0 0  0
0 0  0
0 0  0
0 0  0
0 0  0
0 0  0
0 0  0
0 0  0
0 0  0
0 0  0
0 0  0
0 0  0
0 0  0
0 0  0
0 0  0
0 0  0
0 0  0
0 0  0
0 0  0
0 0  0
0 0  0
0 0  0
0 0  0
0 0  0
0 0  0
0 0  0
0 0  0
0 0  0
0 0  0
0 0  0
0 0  0
0 0  0
0 0  0
0 0  0
0 0  0
0 0  0
0 0  0
0 0  0
0 0  0
0 0  0
0 0  0
0 0  0
0 0  0
0 0  0
0 0  0
0 0  0
0 0  0
0 0  0
0 0  0
0 0  0
0 0  0
0 0  0
0 0  0
0 0  0
0 0  0
0 0  0
0 0  0
0 0  0
0 0  0
0 0  0
0 0  0
0 0  0
0 0  0
0 0  0
0 0  0
0 0  0
0 0  0
0 0  0
0 0  0
0 0  0
0 0  0
0 0  0
0 0  0
0 0  0
0 0  0
0 0  0
0 0  0
0 0  0
0 0  0
0 0  0
0 0  0
0 0  0
0 0  0
0 0  0
0 0  0
0 0  0
0 0  0
0 0  0
0 0  0
0 0  0
0 0  0
0 0  0
0 0  0
0 0  0
0 0  0
0 0  0
0 0  0
0 0  0
0 0  0
0 0  0
0 0  0
0 0  0
0 0  0
0 0  0
0 0  0
0 0  0
0 0  0
0 0  0
0 0  0
0 0  0
0 0  0
0 0  0
0 0  0
0 0  0
0 0  0
0 0  0
0 0  0
0 0  0
0 0  0
0 0  0
0 0  0
0 0  0
0 0  0
0 0  0
0 0  0
0 0  0
0 0  0
0 0  0
0 0  0
0 0  0
0 0  0
0 0  0
0 0  0
0 0  0
0 0  0
0 0  0
0 0  0
0 0  0
0 0  0
0 0  0
0 0  0
0 0  0
0 0  0
0 0  0
0 0  0
0 0  0
0 0  0
0 0  0
0 0  0
0 0  0
0 0  0
0 0  0
0 0  0
0 0  0
0 0  0
0 0  0
0 0  0
0 0  0
0 0  0
0 0  0
0 0  0
0 0  0
0 0  0
0 0  0
0 0  0
0 0  0
0 0  0
0 0  0
0 0  0
0 0  0
0 0  0
0 0  0
0 0  0
0 0  0
0 0  0
0 0  0
0 0  0
0 0  0
0 0  0
0 0  0
0 0  0
0 0  0
0 0  0
0 0  0
0 0  0
0 0  0
0 0  0
0 0  0
0 0  0
0 0  0
0 0  0
0 0  0
0 0  0
0 0  0
0 0  0
0 0  0
0 0  0
0 0  0
0 0  0
0 0  0
0 0  0
0 0  0
0 0  0
0 0  0
0 0  0
0 0  0
0 0  0
0 0  0
0 0  0
0 0  0
0 0  0
0 0  0
0 0  0
0 0  0
0 0  0
0 0  0
0 0  0
0 0  0
0 0  0
0 0  0
0 0  0
0 0  0
0 0  0
0 0  0
0 0  0
0 0  0

SCALARS pressure double 1
LOOKUP_TABLE default
2.59307
2.59293
2.59267
2.59241
2.59233
2.59261
2.59343
2.59493
2.5972
2.60025
2.60404
2.60846
2.61333
2.61846
2.6236
2.62852
2.63299
2.63682
2.63984
2.64194
2.64302
2.64304
2.64199
2.63997
2.63708
2.63345
2.62926
2.62471
2.61998
2.61527
2.61073
2.60647
2.60258
2.59908
2.59599
2.59332
2.59112
2.58943
2.5883
2.58774
2.39451
2.39434
2.39403
2.39371
2.39355
2.39377
2.39455
2.39603
2.39831
2.40142
2.40531
2.40986
2.4149
2.42021
2.42555
2.43066
2.4353
2.43928
2.44242
2.4446
2.44573
2.44575
2.44467
2.44258
2.43958
2.43583
2.43149
2.42677
2.42189
2.41703
2.41236
2.408
2.40402
2.40046
2.39733
2.39464
2.39245
2.39078
2.38967
2.38913
2.19749
2.19726
2.19683
2.19634
2.19602
2.19609
2.19677
2.19821
2.20052
2.20374
2.20782
2.21265
2.21803
2.22371
2.22944
2.23493
2.23994
2.24422
2.2476
2.24994
2.25116
2.25119
2.25005
2.24781
2.24461
2.24059
2.23594
2.2309
2.2257
2.22054
2.21561
2.21103
2.20688
2.2032
2.2
2.1973
2.19512
2.19351
2.19246
2.19196
2.00197
2.00164
2.00099
2.00024
1.99963
1.99945
1.99994
2.00131
2.00366
2.00705
2.01144
2.0167
2.0226
2.02888
2.03523
2.04134
2.0469
2.05166
2.05542
2.05803
2.05939
2.05943
2.05817
2.05571
2.05217
2.04772
2.04259
2.03704
2.03132
2.02569
2.02036
2.01545
2.01105
2.0072
2.00392
2.00122
1.99911
1.99761
1.99667
1.99624
1.8079
1.8074
1.80643
1.80525
1.8042
1.80364
1.80386
1.8051
1.8075
1.81113
1.81596
1.82183
1.82849
1.83563
1.84287
1.84985
1.85622
1.86167
1.86597
1.86895
1.87051
1.87055
1.86912
1.86632
1.86228
1.85722
1.85139
1.84509
1.83863
1.83233
1.82643
1.82107
1.81635
1.81231
1.80897
1.80633
1.80438
1.80309
1.80235
1.80203
1.61522
1.61446
1.61298
1.61116
1.60947
1.60836
1.60819
1.60924
1.6117
1.61565
1.62106
1.62776
1.63546
1.64378
1.65227
1.66046
1.66794
1.67434
1.67938
1.68287
1.68468
1.6847
1.68301
1.67972
1.67499
1.66907
1.66225
1.65491
1.64744
1.64021
1.63354
1.6276
1.62249
1.61827
1.61493
1.61247
1.61085
1.60994
1.60956
1.60944
1.42381
1.42265
1.42041
1.41766
1.41506
1.41317
1.41247
1.41327
1.41578
1.42013
1.4263
1.4341
1.4432
1.45312
1.46329
1.47314
1.48212
1.48981
1.49584
1.5
1.50212
1.50209
1.50002
1.49604
1.49034
1.48323
1.47506
1.46629
1.45742
1.44893
1.44125
1.43459
1.42906
1.4247
1.42151
1.41946
1.41843
1.41821
1.4184
1.41862
1.23353
1.23175
1.22836
1.22427
1.22039
1.2175
1.2161
1.21657
1.21913
1.22397
1.23108
1.24029
1.25123
1.26331
1.27577
1.28784
1.29886
1.30825
1.31561
1.32063
1.32314
1.32299
1.32036
1.3154
1.30837
1.29963
1.28962
1.2789
1.26812
1.25793
1.24891
1.24137
1.2354
1.23103
1.22824
1.22697
1.227
1.22791
1.22905
1.22979
1.0442
1.04143
1.03628
1.03026
1.02472
1.02058
1.01837
1.01844
1.02104
1.02639
1.03459
1.04556
1.05892
1.07393
1.08948
1.10455
1.11827
1.12994
1.13902
1.14516
1.14811
1.14775
1.14429
1.13797
1.12912
1.11817
1.10566
1.09229
1.07886
1.0663
1.05549
1.04689
1.04053
1.03639
1.03442
1.03452
1.03636
1.03912
1.04175
1.04328
0.855706
0.851292
0.843342
0.834618
0.827046
0.821564
0.818542
0.818191
0.820765
0.826564
0.835871
0.848873
0.865373
0.884424
0.904188
0.923257
0.940566
0.955219
0.966545
0.974095
0.977542
0.976809
0.972192
0.964
0.952666
0.938735
0.922879
0.905868
0.888724
0.872755
0.859475
0.849597
0.842998
0.839499
0.838965
0.84134
0.846201
0.85196
0.856854
0.859526
0.668228
0.660907
0.648141
0.635757
0.626074
0.619551
0.616024
0.615397
0.617846
0.623743
0.633774
0.648831
0.66936
0.694312
0.7198
0.744107
0.766122
0.784625
0.798779
0.808054
0.812038
0.810767
0.804569
0.79385
0.779181
0.761268
0.741019
0.719127
0.69667
0.675435
0.658673
0.647333
0.640861
0.638617
0.640311
0.646139
0.656108
0.666637
0.674802
0.678973
0.48267
0.469953
0.447812
0.431163
0.420328
0.41392
0.41077
0.410327
0.412513
0.417668
0.427131
0.443423
0.468954
0.503699
0.536703
0.567414
0.595537
0.618923
0.63657
0.647879
0.652466
0.650492
0.642224
0.628153
0.609043
0.585784
0.560109
0.532101
0.502121
0.471729
0.450289
0.437786
0.432276
0.432004
0.436424
0.446397
0.465618
0.48372
0.496158
0.501941
0.301916
0.279455
0.235649
0.21766
0.209329
0.205522
0.204213
0.20462
0.206269
0.209257
0.215239
0.229454
0.259506
0.315037
0.356293
0.393408
0.429742
0.459216
0.481212
0.494895
0.500299
0.497441
0.48645
0.467859
0.442828
0.41185
0.380474
0.346572
0.307166
0.257288
0.231537
0.2204
0.217532
0.21948
0.225315
0.235544
0.274995
0.304914
0.321486
0.328113
0.13429
0.099312
-0.00689867
-0.00405836
-0.00262661
-0.000601565
0.000794899
0.00148853
0.00162912
0.00147778
-0.000112395
0.00235018
0.0232933
0.139587
0.180276
0.220342
0.270297
0.306673
0.334535
0.351388
0.357857
0.353852
0.338993
0.313628
0.280773
0.235516
0.201366
0.167759
0.124103
0.0191012
0.00103052
-0.000925031
0.000700628
0.00405414
0.00733614
-0.00868041
0.0900886
0.135672
0.150662
0.155452
-0.00568125
-0.00842875
0
0
0
0
0
0
0
0
0
0
0
0.0353926
0.00724739
0.0323231
0.122266
0.161839
0.199347
0.219567
0.227158
0.222101
0.20204
0.164426
0.123009
0.0361597
0.0182553
0.00216663
0.00290932
0
0
0
0
0
0
0
-0.0454579
-0.00917483
-0.0208166
-0.022282
0
0
0
0
0
0
0
0
0
0
0
0
0
0
0
0
0.0243806
0.0196824
0.0826834
0.100686
0.107849
0.10356
0.0803117
0.0161349
0.00307662
0
0
0
0
0
0
0
0
0
0
0
0
0
0
0
0
0
0
0
0
0
0
0
0
0
0
0
0
0
0
0
0
0
0.0168807
-0.0026971
-0.00100371
1.00648e-05
0.000809663
0
0
0
0
0
0
0
0
0
0
0
0
0
0
0
0
0
0
0
0
0
0
0
0
0
0
0
0
0
0
0
0
0
0
0
0
0
0
0
0
0
0
0
0
0
0
0
0
0
0
0
0
0
0
0
0
0
0
0
0
0
0
0
0
0
0
0
0
0
0
0
0
0
0
0
0
0
0
0
0
0
0
0
0
0
0
0
0
0
0
0
0
0
0
0
0
0
0
0
0
0
0
0
0
0
0
0
0
0
0
0
0
0
0
0
0
0
0
0
0
0
0
0
0
0
0
0
0
0
0
0
0
0
0
0
0
0
0
0
0
0
0
0
0
0
0
0
0
0
0
0
0
0
0
0
0
0
0
0
0
0
0
0
0
0
0
0
0
0
0
0
0
0
0
0
0
0
0
0
0
0
0
0
0
0
0
0
0
0
0
0
0
0
0
0
0
0
0
0
0
0
0
0
0
0
0
0
0
0
0
0
0
0
0
0
0
0
0
0
0
0
0
0
0
0
0
0
0
0
0
0
0
0
0
0
0
0
0
0
0
0
0
0
0
0
0
0
0
0
0
0
0
0
0
0
0
0
0
0
0
0
0
0
0
0
0
0
0
0
0
0
0
0
0
0
0
0
0
0
0
0
0
0
0
0
0
0
0
0
0
0
0
0
0
0
0
0
0
0
0
0
0
0
0
0
0
0
0
0
0
0
0
0
0
0
0
0
0
0
0
0
0
0
0
0
0
0
0
0
0
0
0
0
0
0
0
0
0
0
0
0
0
0
0
0
0
0
0
0
0
0
0
0
0
0
0
0
0
0
0
0
0
0
0
0
0
0
0
0
0
0
0
0
0
0
0
0
0
0
0
0
0
0
0
0
0
0
0
0
0
0
0
0
0
0
0
0
0
0
0
0
0
0
0
0
0
0
0
0
0
0
0
0
0
0
0
0
0
0
0
0
0
0
0
0
0
0
0
0
0
0
0
0
0
0
0
0
0
0
0
0
0
0
0
0
0
0
0
0
0
0
0
0
0
0
0
0
0
0
0
0
0
0
0
0
0
0
0
0
0
0
0
0
0
0
0
0
0
0
0
0
0
0
0
0
0
0
0
0
0
0
0
0
0
0
0
0
0
0
0
0
0
0
0
0
0
0
0
0
0
0
0
0
0
0
0
0
0
0
0
0
0
0
0
0
0
0
0
0
0
0
0
0
0
0
0
0
SCALARS rhs double 1
LOOKUP_TABLE default
-4.83889
-4.89634
-4.89608
-4.89461
-4.89268
-4.8907
-4.889
-4.88783
-4.88731
-4.88739
-4.88801
-4.88899
-4.89019
-4.89143
-4.89258
-4.89352
-4.89419
-4.89458
-4.89475
-4.89476
-4.89532
-4.89535
-4.89404
-4.89358
-4.89296
-4.89221
-4.89142
-4.89074
-4.89031
-4.89029
-4.89085
-4.89195
-4.89345
-4.89489
-4.89563
-4.89518
-4.89365
-4.89199
-4.89117
-4.89109
0.103507
0.0490876
0.0503182
0.0525522
0.0550796
0.0575504
0.0596679
0.0612204
0.0621685
0.062542
0.0620879
0.0611477
0.0599073
0.0585712
0.0573303
0.0563308
0.0556511
0.055295
0.0552066
0.0553038
0.054794
0.0549636
0.0563754
0.0570095
0.0578527
0.0588737
0.059967
0.0609662
0.0616767
0.0619226
0.0613641
0.0604893
0.059323
0.058286
0.0579431
0.0586868
0.0603002
0.0618771
0.0625981
0.0626033
0.0970179
0.044945
0.0463322
0.0487272
0.0514126
0.0540242
0.0562619
0.0579178
0.0590343
0.0596289
0.0592478
0.0583795
0.0572145
0.0559647
0.0548306
0.0539652
0.0534457
0.0532622
0.0533313
0.0535356
0.0529071
0.0531931
0.0543966
0.0548581
0.0555355
0.0564154
0.0573962
0.058307
0.0589469
0.0591397
0.0583749
0.0575031
0.0564785
0.0557304
0.0558144
0.0570249
0.0589788
0.0606482
0.0612616
0.0611914
0.0886946
0.0393151
0.0409605
0.0436352
0.0465947
0.0494501
0.0518936
0.0537214
0.0551125
0.0559798
0.0557124
0.0549566
0.0539134
0.0528091
0.0518596
0.0512281
0.0509888
0.0511065
0.05145
0.0518419
0.0510378
0.0514919
0.0523318
0.0524835
0.0528587
0.0534774
0.0542468
0.0549892
0.055495
0.0555879
0.0545561
0.0536683
0.0528746
0.0525889
0.0533431
0.0552717
0.0577367
0.0595346
0.0599711
0.0598011
0.0776123
0.0311947
0.0332889
0.0364596
0.0399003
0.0431745
0.0459598
0.0480582
0.0498695
0.0510487
0.0509281
0.0503194
0.0494473
0.0485639
0.0479081
0.0476548
0.0478649
0.0484592
0.0492322
0.0499176
0.0488903
0.0495403
0.0498232
0.0494751
0.0493525
0.0495305
0.049937
0.0503899
0.0506678
0.0505942
0.0492047
0.0482635
0.0478316
0.0482522
0.0500059
0.0529794
0.0561637
0.0581159
0.0582729
0.0578601
0.0628165
0.01954
0.0224445
0.02652
0.0308208
0.0348212
0.0381751
0.0406918
0.0430922
0.0445664
0.0445873
0.0441267
0.043465
0.0428997
0.0426986
0.0430352
0.0439307
0.0452276
0.0466153
0.0477125
0.0463852
0.0472766
0.0467634
0.045661
0.0447544
0.0442153
0.0440212
0.0439909
0.043885
0.0435287
0.0416331
0.0405497
0.0406675
0.0421548
0.0453947
0.0498895
0.0540848
0.0562029
0.0558945
0.0552598
0.0430085
0.00296944
0.00735874
0.0131091
0.0189657
0.0242361
0.0285426
0.031705
0.03483
0.0364277
0.0364655
0.036048
0.0355845
0.0354437
0.0359188
0.0371422
0.0390309
0.0412841
0.043452
0.0450391
0.043229
0.0445241
0.0429641
0.0408063
0.0387288
0.037065
0.0359011
0.0350739
0.0343081
0.0334363
0.0307798
0.0293332
0.0302555
0.033351
0.038821
0.0455582
0.0511836
0.0534403
0.0523311
0.051344
0.0167633
-0.0200381
-0.0130024
-0.00417913
0.00446929
0.0119269
0.0178332
0.0220442
0.0258733
0.0271668
0.0268182
0.0260894
0.025674
0.0260215
0.0274267
0.029886
0.0330919
0.0364908
0.0394685
0.0412874
0.0391416
0.040799
0.038203
0.0347382
0.0310276
0.0276789
0.0250227
0.0229276
0.0209906
0.0190737
0.0151952
0.0128485
0.0148708
0.0203485
0.0291337
0.03914
0.0467392
0.0490083
0.0465292
0.045061
-0.0172231
-0.0510313
-0.0395539
-0.025232
-0.0117498
-0.000699458
0.0078882
0.0140121
0.0183452
0.018705
0.0170468
0.0152321
0.0145425
0.0152764
0.0177041
0.0215624
0.0262296
0.0307238
0.0342428
0.0354885
0.0336438
0.0355431
0.0324097
0.027609
0.0218482
0.0161875
0.0114543
0.00752955
0.003496
-0.000667611
-0.00650284
-0.0108063
-0.00744166
0.00132061
0.0147255
0.0291831
0.0392577
0.0411601
0.0363794
0.0343883
-0.0607258
-0.0925872
-0.0739698
-0.0498445
-0.0282244
-0.011541
0.00153141
0.0114616
0.0164507
0.0150464
0.01034
0.00613453
0.0049852
0.00574934
0.00867774
0.0131649
0.018805
0.0239174
0.0274215
0.0270623
0.0261161
0.0290233
0.0261004
0.0203081
0.0123258
0.00383141
-0.00328911
-0.00906495
-0.0164811
-0.0251833
-0.0326763
-0.0404384
-0.035737
-0.0236058
-0.00523098
0.0138533
0.0264337
0.0269678
0.0182495
0.0159676
-0.117431
-0.150033
-0.118543
-0.0757313
-0.0403481
-0.0154227
0.00423509
0.020207
0.0261527
0.0224758
0.0126118
0.00349022
0.00199036
0.00255402
0.00471223
0.00645661
0.0112157
0.0162757
0.0197895
0.0172135
0.0195653
0.0234189
0.0211551
0.0145255
0.00417664
-0.00760353
-0.0162811
-0.0204904
-0.0314411
-0.0475805
-0.0538038
-0.0601771
-0.0551692
-0.0444763
-0.0268603
-0.00925376
0.00516489
0.00230265
-0.0133448
-0.0149868
-0.186629
-0.225539
-0.160361
-0.0791774
-0.0223408
0.0106226
0.0336104
0.048384
0.0499907
0.0479859
0.0383681
0.0159877
0.00380777
0.00548114
0.0105986
0.003494
0.00270608
0.00797207
0.0144889
0.0133342
0.0226685
0.0245176
0.0201733
0.0096494
-0.00550691
-0.0217925
-0.026908
-0.0126619
-0.0216445
-0.0461839
-0.0373359
-0.0225771
-0.0243797
-0.0316875
-0.0427016