# vtk DataFile Version 4.0
Nusif Fluid VTK output
ASCII
DATASET STRUCTURED_POINTS
DIMENSIONS 40 30 1
ORIGIN 0 0 0 
SPACING 0.2 0.2 1
POINT_DATA 1200 

VECTORS velocity double
0.00892263 -0.009825  0
0.0265653 -0.00956712  0
0.0435048 -0.00906508  0
0.0592206 -0.00834076  0
0.0732975 -0.00742366  0
0.0853841 -0.00634816  0
0.0952003 -0.00515137  0
0.102542 -0.00387149  0
0.10728 -0.00254701  0
0.109365 -0.00121652  0
0.108822 8.14183e-05  0
0.105755 0.00130863  0
0.100342 0.002429  0
0.0928269 0.0034107  0
0.0835122 0.00422923  0
0.0727381 0.00487055  0
0.0608601 0.0053336  0
0.0482224 0.00563051  0
0.035136 0.00578269  0
0.0218669 0.00581346  0
0.0086414 0.00573941  0
-0.00433418 0.00556388  0
-0.0168436 0.00527355  0
-0.0286344 0.00484558  0
-0.0394069 0.00425556  0
-0.0488218 0.00348817  0
-0.0565238 0.00254294  0
-0.0621736 0.00143616  0
-0.0654801 0.000199752  0
-0.0662293 -0.00112103  0
-0.06431 -0.00246866  0
-0.0597397 -0.00377208  0
-0.0526989 -0.0049392  0
-0.0435864 -0.00584387  0
-0.0330969 -0.00631631  0
-0.0222887 -0.0061627  0
-0.0125409 -0.00525596  0
-0.00524898 -0.00370693  0
-0.00121438 -0.00199869  0
-2.56084e-05 -0.000861133  0
0.0091806 -0.0296762  0
0.0273256 -0.0288921  0
0.0447318 -0.0273653  0
0.0608631 -0.0251639  0
0.0752915 -0.0223792  0
0.0876581 -0.0191165  0
0.0976791 -0.0154887  0
0.105148 -0.011611  0
0.109937 -0.00759952  0
0.111995 -0.00357008  0
0.11135 0.000361098  0
0.108106 0.00407814  0
0.102449 0.00747042  0
0.0946346 0.0104394  0
0.0849829 0.0129082  0
0.0738575 0.0148328  0
0.0616385 0.0162106  0
0.0486906 0.0170816  0
0.0353348 0.0175168  0
0.0218324 0.0175942  0
0.00839078 0.0173695  0
-0.00481032 0.0168546  0
-0.0175783 0.0160048  0
-0.0296709 0.0147426  0
-0.0407809 0.0129864  0
-0.0505473 0.0106842  0
-0.0585852 0.00783269  0
-0.0645245 0.00448175  0
-0.068048 0.000730462  0
-0.0689233 -0.0032809  0
-0.0670304 -0.00737453  0
-0.0623889 -0.0113316  0
-0.0551924 -0.0148706  0
-0.0458613 -0.0176098  0
-0.0351144 -0.0190408  0
-0.0240255 -0.0185894  0
-0.0139721 -0.0158847  0
-0.00633316 -0.0112635  0
-0.00189713 -0.00616719  0
-0.000259507 -0.00277347  0
0.00970653 -0.0502509  0
0.0288759 -0.0489052  0
0.0472329 -0.0462867  0
0.0642072 -0.0425183  0
0.079346 -0.0377614  0
0.0922761 -0.0321996  0
0.102708 -0.026026  0
0.110433 -0.0194355  0
0.115323 -0.0126216  0
0.117328 -0.00577777  0
0.116476 0.000900876  0
0.112874 0.00721675  0
0.10672 0.0129774  0
0.0982936 0.0180075  0
0.0879516 0.022168  0
0.076106 0.0253782  0
0.0631899 0.0276347  0
0.0496128 0.0290169  0
0.035718 0.0296667  0
0.0217571 0.0297423  0
0.0078957 0.0293591  0
-0.00574658 0.0285433  0
-0.0190306 0.0272032  0
-0.0317362 0.0251777  0
-0.0435399 0.0223005  0
-0.0540329 0.0184651  0
-0.0627665 0.013659  0
-0.0693057 0.00796988  0
-0.0732781 0.00157411  0
-0.0744122 -0.00527925  0
-0.0725693 -0.0122762  0
-0.0677717 -0.0190333  0
-0.0602382 -0.0250633  0
-0.0504332 -0.0297177  0
-0.0391267 -0.0321509  0
-0.027433 -0.0314265  0
-0.0167398 -0.0269589  0
-0.00840496 -0.0193277  0
-0.00319199 -0.0109167  0
-0.000701501 -0.00531684  0
0.0105246 -0.0721617  0
0.0312853 -0.0701874  0
0.0511127 -0.0663549  0
0.0693818 -0.0608584  0
0.0856033 -0.0539459  0
0.0993865 -0.0458921  0
0.110436 -0.0369782  0
0.118547 -0.0274815  0
0.123591 -0.0176727  0
0.125518 -0.0078205  0
0.124353 0.00180033  0
0.120206 0.0109035  0
0.113289 0.019201  0
0.103915 0.0264231  0
0.0924985 0.0323496  0
0.0795299 0.0368494  0
0.0655298 0.0399185  0
0.0509837 0.0416952  0
0.036274 0.0424317  0
0.021637 0.0424142  0
0.0071674 0.0418573  0
-0.00712158 0.0408157  0
-0.0211847 0.0391174  0
-0.0348388 0.036463  0
-0.0477309 0.0325508  0
-0.0593714 0.0271883  0
-0.0692063 0.0203445  0
-0.076695 0.0121527  0
-0.0813761 0.00288514  0
-0.0829151 -0.00707671  0
-0.0811411 -0.0172553  0
-0.0760792 -0.0270734  0
-0.0679864 -0.0358092  0
-0.0573967 -0.0425264  0
-0.0451663 -0.0460391  0
-0.0324845 -0.045074  0
-0.0207734 -0.038876  0
-0.0113772 -0.028302  0
-0.00502759 -0.0166654  0
-0.00132403 -0.00892258  0
0.0116727 -0.0960297  0
0.034661 -0.0933197  0
0.0565313 -0.0880811  0
0.0765801 -0.0806098  0
0.0942732 -0.0712682  0
0.109204 -0.0604419  0
0.121079 -0.0485116  0
0.129704 -0.0358402  0
0.134959 -0.0227705  0
0.136791 -0.00963906  0
0.135217 0.00320198  0
0.130342 0.0153676  0
0.122386 0.0264534  0
0.111708 0.0360666  0
0.0987994 0.0438744  0
0.0842641 0.049672  0
0.0687508 0.0534527  0
0.0528584 0.0554428  0
0.0370318 0.0560638  0
0.0214876 0.0558069  0
0.00621435 0.0550512  0
-0.00894017 0.0539092  0
-0.024076 0.052067  0
-0.0390623 0.0489981  0
-0.0534969 0.0441871  0
-0.0667687 0.0373093  0
-0.078169 0.0283038  0
-0.087005 0.0173633  0
-0.092688 0.00488381  0
-0.0947923 -0.00858682  0
-0.0930983 -0.0223679  0
-0.0876313 -0.0356447  0
-0.0787009 -0.0474162  0
-0.0669424 -0.0564228  0
-0.0533428 -0.0611281  0
-0.0392142 -0.059951  0
-0.0260507 -0.0520294  0
-0.0151993 -0.0385522  0
-0.00735685 -0.0237632  0
-0.00210829 -0.0139328  0
0.0132005 -0.122564  0
0.0391408 -0.118953  0
0.0636889 -0.112021  0
0.0860366 -0.10222  0
0.105601 -0.0900687  0
0.121969 -0.0760927  0
0.134869 -0.0607878  0
0.144134 -0.0446052  0
0.14967 -0.0279477  0
0.151422 -0.0111983  0
0.149381 0.00522549  0
0.143624 0.0208253  0
0.134377 0.0350475  0
0.122042 0.0473345  0
0.107211 0.0571941  0
0.090635 0.0643124  0
0.0731322 0.0686767  0
0.0554545 0.0706372  0
0.0381353 0.0708635  0
0.0213752 0.0701599  0
0.00502349 0.0691716  0
-0.0113016 0.0681172  0
-0.0278954 0.0664378  0
-0.0446841 0.0632517  0
-0.0611912 0.0577249  0
-0.0766409 0.049343  0
-0.0901219 0.0380014  0
-0.100742 0.0239723  0
-0.107746 0.00781186  0
-0.110584 -0.00972169  0
-0.108967 -0.0276937  0
-0.102913 -0.0449896  0
-0.0928009 -0.0602642  0
-0.0794035 -0.0718809  0
-0.0638939 -0.0779297  0
-0.0477689 -0.0765537  0
-0.0326441 -0.0668657  0
-0.0198946 -0.0504677  0
-0.0101808 -0.0325549  0
-0.00305241 -0.0206691  0
0.0151539 -0.152568  0
0.0448491 -0.147808  0
0.0727573 -0.138771  0
0.097937 -0.126146  0
0.119761 -0.110678  0
0.137832 -0.0930695  0
0.151929 -0.0739533  0
0.161955 -0.0538767  0
0.167874 -0.0332772  0
0.169638 -0.0125305  0
0.167173 0.00791844  0
0.160486 0.0274296  0
0.149784 0.0452473  0
0.135511 0.0605968  0
0.118368 0.0727598  0
0.0992807 0.0812637  0
0.0792742 0.0860881  0
0.0592793 0.0877518  0
0.0399404 0.0872601  0
0.021455 0.0858622  0
0.00352116 0.0846084  0
-0.0145087 0.0838891  0
-0.0331391 0.082744  0
-0.0523333 0.0797829  0
-0.0715173 0.0737395  0
-0.0897283 0.0638444  0
-0.105821 0.0499289  0
-0.118667 0.0323674  0
-0.127312 0.0119205  0
-0.13105 -0.0103979  0
-0.129489 -0.0333391  0
-0.122631 -0.055401  0
-0.110933 -0.0748073  0
-0.0953433 -0.0894702  0
-0.0772788 -0.0970598  0
-0.058497 -0.0954761  0
-0.0407986 -0.0839124  0
-0.0256189 -0.0644964  0
-0.0135826 -0.0434225  0
-0.00418205 -0.0294766  0
0.0175329 -0.186895  0
0.0517777 -0.180633  0
0.0837013 -0.16892  0
0.112201 -0.152818  0
0.136615 -0.133385  0
0.156594 -0.111552  0
0.172003 -0.0881165  0
0.182882 -0.0637581  0
0.18934 -0.0389129  0
0.191362 -0.0138195  0
0.188732 0.0111634  0
0.181287 0.0351765  0
0.169179 0.0571701  0
0.152869 0.0761167  0
0.133146 0.0909655  0
0.111141 0.10101  0
0.0881098 0.106238  0
0.0651614 0.107404  0
0.0430427 0.105924  0
0.0219667 0.103618  0
0.00151187 0.1021  0
-0.0191736 0.101972  0
-0.040714 0.101691  0
-0.0630602 0.0992359  0
-0.0855546 0.0928251  0
-0.107084 0.0813595  0
-0.126275 0.0645581  0
-0.141749 0.0429208  0
-0.152336 0.0174594  0
-0.157147 -0.0105265  0
-0.155647 -0.0394094  0
-0.147782 -0.0671923  0
-0.13408 -0.0915544  0
-0.115672 -0.109861  0
-0.0942825 -0.119263  0
-0.0720387 -0.117439  0
-0.0510107 -0.103816  0
-0.0327239 -0.0811999  0
-0.0177686 -0.0568517  0
-0.0055643 -0.0407935  0
0.0202194 -0.226274  0
0.0595936 -0.218068  0
0.0960131 -0.202965  0
0.128174 -0.182569  0
0.155387 -0.158396  0
0.177372 -0.131639  0
0.194084 -0.103285  0
0.205788 -0.0743056  0
0.212949 -0.045118  0
0.215705 -0.015525  0
0.213505 0.0145652  0
0.205794 0.0437978  0
0.192672 0.0706442  0
0.174544 0.0939461  0
0.152181 0.112087  0
0.126963 0.123976  0
0.100448 0.129681  0
0.0738811 0.130339  0
0.0480223 0.127829  0
0.0230806 0.124593  0
-0.00138499 0.122908  0
-0.0261665 0.123494  0
-0.0517398 0.124147  0
-0.0779958 0.122247  0
-0.104324 0.115502  0
-0.129608 0.102362  0
-0.152299 0.0823049  0
-0.170763 0.0559797  0
-0.183633 0.0247236  0
-0.189833 -0.00991242  0
-0.188597 -0.0458921  0
-0.179697 -0.0806078  0
-0.163629 -0.111042  0
-0.141664 -0.133881  0
-0.115941 -0.145491  0
-0.0892007 -0.14333  0
-0.0639321 -0.127358  0
-0.0417195 -0.101294  0
-0.0230632 -0.0735056  0
-0.00730869 -0.0552345  0
0.0229383 -0.271048  0
0.06756 -0.260472  0
0.108639 -0.241189  0
0.144559 -0.215554  0
0.1746 -0.185794  0
0.198568 -0.153322  0
0.216312 -0.119185  0
0.22837 -0.0852942  0
0.236122 -0.0521693  0
0.24028 -0.0185147  0
0.239432 0.0174757  0
0.232049 0.0528538  0
0.218569 0.0850629  0
0.199251 0.113845  0
0.174412 0.136261  0
0.145819 0.150481  0
0.115553 0.156826  0
0.0849584 0.157224  0
0.0545702 0.154059  0
0.0244412 0.150302  0
-0.00572763 0.148702  0
-0.0361252 0.149748  0
-0.0666346 0.150845  0
-0.0971378 0.149179  0
-0.127419 0.14205  0
-0.156672 0.127223  0
-0.183247 0.103583  0
-0.205196 0.0719873  0
-0.221016 0.0342788  0
-0.229447 -0.00796325  0
-0.229276 -0.0523746  0
-0.219755 -0.095674  0
-0.201059 -0.133869  0
-0.174502 -0.162704  0
-0.142899 -0.177124  0
-0.110255 -0.17421  0
-0.0798024 -0.155329  0
-0.0529259 -0.125542  0
-0.0297486 -0.0942216  0
-0.00952211 -0.0736309  0
0.0253936 -0.320984  0
0.0749689 -0.307899  0
0.120656 -0.283652  0
0.160156 -0.251634  0
0.192846 -0.215567  0
0.218756 -0.176549  0
0.236627 -0.134693  0
0.247197 -0.0955333  0
0.254384 -0.0599894  0
0.260757 -0.0243465  0
0.262255 0.0195366  0
0.254552 0.0627576  0
0.240779 0.0992903  0
0.221358 0.135234  0
0.194459 0.163485  0
0.162481 0.180702  0
0.128616 0.18761  0
0.0944094 0.188115  0
0.0597956 0.185044  0
0.0243619 0.181753  0
-0.0119965 0.180652  0
-0.0482089 0.181283  0
-0.0831655 0.181651  0
-0.117019 0.179605  0
-0.150503 0.172265  0
-0.183678 0.156316  0
-0.214865 0.129131  0
-0.241421 0.0918235  0
-0.26166 0.047382  0
-0.274153 -0.00326386  0
-0.276804 -0.057715  0
-0.267718 -0.112062  0
-0.24629 -0.160727  0
-0.213821 -0.197993  0
-0.174128 -0.216255  0
-0.133821 -0.211154  0
-0.0975921 -0.188193  0
-0.0658912 -0.154382  0
-0.0377583 -0.119819  0
-0.0122145 -0.0969308  0
0.0276166 -0.375587  0
0.0821584 -0.360565  0
0.132673 -0.330306  0
0.175032 -0.289956  0
0.209871 -0.247889  0
0.237893 -0.201272  0
0.25321 -0.146272  0
0.257143 -0.10157  0
0.260458 -0.067568  0
0.270404 -0.0362014  0
0.275188 0.0219949  0
0.26214 0.0779358  0
0.245494 0.111415  0
0.227923 0.156986  0
0.200372 0.193064  0
0.165556 0.214798  0
0.128728 0.221086  0
0.0926019 0.221849  0
0.0563053 0.219097  0
0.0190043 0.217311  0
-0.0197769 0.21711  0
-0.0579553 0.216093  0
-0.0937376 0.21446  0
-0.127852 0.211646  0
-0.162469 0.205207  0
-0.199615 0.190579  0
-0.237578 0.160904  0
-0.271131 0.117046  0
-0.297781 0.0659353  0
-0.31642 0.00619968  0
-0.323662 -0.0604003  0
-0.316181 -0.129059  0
-0.29287 -0.191584  0
-0.255217 -0.240376  0
-0.206423 -0.265478  0
-0.15728 -0.254501  0
-0.115613 -0.225864  0
-0.079613 -0.187535  0
-0.0466941 -0.15084  0
-0.0152815 -0.125988  0
0.0300065 -0.434791  0
0.090572 -0.419606  0
0.146283 -0.380603  0
0.188585 -0.327432  0
0.224726 -0.284503  0
0.254175 -0.225234  0
0.25979 -0.146348  0
0.248723 -0.0974664  0
0.243045 -0.0724159  0
0.255598 -0.0569612  0
0.263495 0.0269665  0
0.24018 0.106218  0
0.218804 0.118046  0
0.205004 0.178615  0
0.180322 0.220554  0
0.144144 0.255186  0
0.102887 0.255667  0
0.066315 0.256848  0
0.032747 0.250844  0
0.00325936 0.249234  0
-0.0258707 0.24998  0
-0.0548741 0.247286  0
-0.0831142 0.244172  0
-0.111729 0.241549  0
-0.144365 0.239444  0
-0.1874 0.233411  0
-0.23866 0.204186  0
-0.282869 0.148419  0
-0.314663 0.0898975  0
-0.337131 0.0202362  0
-0.346566 -0.0608688  0
-0.340104 -0.145644  0
-0.31926 -0.222264  0
-0.287397 -0.282324  0
-0.236633 -0.3262  0
-0.180622 -0.302049  0
-0.135308 -0.268414  0
-0.094766 -0.224644  0
-0.0567245 -0.18781  0
-0.0187227 -0.161551  0
0.0318381 -0.498207  0
0.0982738 -0.486317  0
0.155172 -0.429608  0
0.188652 -0.357314  0
0.225664 -0.330877  0
0.244406 -0.229376  0
0.229963 -0.13493  0
0.2134 -0.0828063  0
0.199878 -0.0694283  0
0.192679 -0.0668555  0
0.196314 0.023777  0
0.208147 0.119336  0
0.209386 0.123512  0
0.176158 0.218622  0
0.149846 0.229207  0
0.110918 0.318526  0
0.0517906 0.289598  0
0.0127127 0.295452  0
-0.0148956 0.2703  0
-0.0206047 0.261859  0
-0.0211552 0.26392  0
-0.0244189 0.262499  0
-0.0325498 0.262217  0
-0.0475415 0.263999  0
-0.0742685 0.273249  0
-0.128015 0.293283  0
-0.209604 0.274835  0
-0.270662 0.181486  0
-0.295326 0.111735  0
-0.307294 0.0312813  0
-0.30762 -0.0637055  0
-0.299067 -0.159376  0
-0.288267 -0.241729  0
-0.288496 -0.296047  0
-0.260663 -0.393408  0
-0.206804 -0.347823  0
-0.161767 -0.316103  0
-0.114778 -0.2676  0
-0.0687184 -0.23207  0
-0.0226473 -0.204479  0
0.028011 -0.559619  0
0.0895025 -0.555948  0
0.127262 -0.456964  0
0.139971 -0.377699  0
0.148401 -0.357485  0
0.145504 -0.289885  0
0.155618 -0.063789  0
0.18217 -0.0367974  0
0.195064 -0.0325589  0
0.151493 -0.0319835  0
0.107317 0.00862685  0
0.152982 0.0570135  0
0.142509 0.0637912  0
0.104512 0.236681  0
0.123906 0.225582  0
0.103608 0.379821  0
0.054639 0.334844  0
-0.0151315 0.35672  0
-0.0498696 0.268264  0
-0.0290428 0.245663  0
-0.000401217 0.248912  0
0.0217448 0.255513  0
0.030116 0.265853  0
0.0178914 0.284472  0
-0.0180535 0.313118  0
-0.0413728 0.328928  0
-0.0867588 0.324466  0
-0.170915 0.098688  0
-0.213875 0.0602549  0
-0.213753 0.0172369  0
-0.207852 -0.0332857  0
-0.208932 -0.0825317  0
-0.225446 -0.123421  0
-0.242063 -0.359033  0
-0.244835 -0.427362  0
-0.224931 -0.389189  0
-0.185284 -0.360977  0
-0.136684 -0.320649  0
-0.0800788 -0.284799  0
-0.0261648 -0.254846  0
0.00971 -0.59812  0
0.01942 -0.590204  0
0.0379232 -0.525724  0
0.0880921 -0.193064  0
0.134079 -0.178743  0
0.0742005 -0.178743  0
0 0  0
0 0  0
0 0  0
0 0  0
0 0  0
0 0  0
0 0  0
0.0619528 0.112791  0
0.0366372 0.112791  0
0.034641 0.200059  0
0.0805178 0.380278  0
0.0411225 0.39704  0
0.0284448 0.273803  0
0.0165683 0.228838  0
0.0309011 0.219648  0
0.0418493 0.248571  0
0.0287049 0.275236  0
0.0181437 0.296322  0
-0.00785974 0.31638  0
-0.037618 0.164464  0
-0.0206864 0.164464  0
0 0  0
0 0  0
0 0  0
0 0  0
0 0  0
0 0  0
-0.122417 -0.213681  0
-0.25397 -0.213681  0
-0.248252 -0.204546  0
-0.17224 -0.365502  0
-0.111081 -0.350284  0
-0.0841581 -0.340249  0
-0.0286178 -0.310406  0
0.000897358 -0.303915  0
0.0106074 -0.295102  0
0.00971 -0.295102  0
0 0  0
0 0  0
0 0  0
0 0  0
0 0  0
0 0  0
0 0  0
0 0  0
0 0  0
0 0  0
0 0  0
0 0  0
0 0  0
0.0205612 0.19852  0
0.0964022 0.19852  0
0.100611 0.25687  0
0.0495401 0.227258  0
0.0465692 0.20831  0
0.0435982 0.250377  0
0.0256089 0.268088  0
0.0128817 0.148161  0
0.00907187 0.148161  0
0 0  0
0 0  0
0 0  0
0 0  0
0 0  0
0 0  0
0 0  0
0 0  0
0 0  0
0 0  0
0 0  0
-0.0555403 -0.175142  0
-0.102637 -0.175142  0
-0.0897879 -0.183586  0
-0.0426914 -0.169512  0
0 0  0
0 0  0
0 0  0
0 0  0
0 0  0
0 0  0
0 0  0
0 0  0
0 0  0
0 0  0
0 0  0
0 0  0
0 0  0
0 0  0
0 0  0
0 0  0
0 0  0
0 0  0
0.0247701 0.113629  0
0.0575289 0.113629  0
0.0350097 0.10564  0
0.02405 0.125189  0
0.0217991 0.125189  0
0 0  0
0 0  0
0 0  0
0 0  0
0 0  0
0 0  0
0 0  0
0 0  0
0 0  0
0 0  0
0 0  0
0 0  0
0 0  0
0 0  0
0 0  0
0 0  0
0 0  0
0 0  0
0 0  0
0 0  0
0 0  0
0 0  0
0 0  0
0 0  0
0 0  0
0 0  0
0 0  0
0 0  0
0 0  0
0 0  0
0 0  0
0 0  0
0 0  0
0 0  0
0 0  0
0 0  0
0 0  0
0 0  0
0 0  0
0 0  0
0 0  0
0 0  0
0 0  0
0 0  0
0 0  0
0 0  0
0 0  0
0 0  0
0 0  0
0 0  0
0 0  0
0 0  0
0 0  0
0 0  0
0 0  0
0 0  0
0 0  0
0 0  0
0 0  0
0 0  0
0 0  0
0 0  0
0 0  0
0 0  0
0 0  0
0 0  0
0 0  0
0 0  0
0 0  0
0 0  0
0 0  0
0 0  0
0 0  0
0 0  0
0 0  0
0 0  0
0 0  0
0 0  0
0 0  0
0 0  0
0 0  0
0 0  0
0 0  0
0 0  0
0 0  0
0 0  0
0 0  0
0 0  0
0 0  0
0 0  0
0 0  0
0 0  0
0 0  0
0 0  0
0 0  0
0 0  0
0 0  0
0 0  0
0 0  0
0 0  0
0 0  0
0 0  0
0 0  0
0 0  0
0 0  0
0 0  0
0 0  0
0 0  0
0 0  0
0 0  0
0 0  0
0 0  0
0 0  0
0 0  0
0 0  0
0 0  0
0 0  0
0 0  0
0 0  0
0 0  0
0 0  0
0 0  0
0 0  0
0 0  0
0 0  0
0 0  0
0 0  0
0 0  0
0 0  0
0 0  0
0 0  0
0 0  0
0 0  0
0 0  0
0 0  0
0 0  0
0 0  0
0 0  0
0 0  0
0 0  0
0 0  0
0 0  0
0 0  0
0 0  0
0 0  0
0 0  0
0 0  0
0 0  0
0 0  0
0 0  0
0 0  0
0 0  0
0 0  0
0 0  0
0 0  0
0 0  0
0 0  0
0 0  0
0 0  0
0 0  0
0 0  0
0 0  0
0 0  0
0 0  0
0 0  0
0 0  0
0 0  0
0 0  0
0 0  0
0 0  0
0 0  0
0 0  0
0 0  0
0 0  0
0 0  0
0 0  0
0 0  0
0 0  0
0 0  0
0 0  0
0 0  0
0 0  0
0 0  0
0 0  0
0 0  0
0 0  0
0 0  0
0 0  0
0 0  0
0 0  0
0 0  0
0 0  0
0 0  0
0 0  0
0 0  0
0 0  0
0 0  0
0 0  0
0 0  0
0 0  0
0 0  0
0 0  0
0 0  0
0 0  0
0 0  0
0 0  0
0 0  0
0 0  0
0 0  0
0 0  0
0 0  0
0 0  0
0 0  0
0 0  0
0 0  0
0 0  0
0 0  0
0 0  0
0 0  0
0 0  0
0 0  0
0 0  0
0 0  0
0 0  0
0 0  0
0 0  0
0 0  0
0 0  0
0 0  0
0 0  0
0 0  0
0 0  0
0 0  0
0 0  0
0 0  0
0 0  0
0 0  0
0 0  0
0 0  0
0 0  0
0 0  0
0 0  0
0 0  0
0 0  0
0 0  0
0 0  0
0 0  0
0 0  0
0 0  0
0 0  0
0 0  0
0 0  0
0 0  0
0 0  0
0 0  0
0 0  0
0 0  0
0 0  0
0 0  0
0 0  0
0 0  0
0 0  0
0 0  0
0 0  0
0 0  0
0 0  0
0 0  0
0 0  0
0 0  0
0 0  0
0 0  0
0 0  0
0 0  0
0 0  0
0 0  0
0 0  0
0 0  0
0 0  0
0 0  0
0 0  0
0 0  0
0 0  0
0 0  0
0 0  0
0 0  0
0 0  0
0 0  0
0 0  0
0 0  0
0 0  0
0 0  0
0 0  0
0 0  0
0 0  0
0 0  0
0 0  0
0 0  0
0 0  0
0 0  0
0 0  0
0 0  0
0 0  0
0 0  0
0 0  0
0 0  0
0 0  0
0 0  0
0 0  0
0 0  0
0 0  0
0 0  0
0 0  0
0 0  0
0 0  0
0 0  0
0 0  0
0 0  0
0 0  0
0 0  0
0 0  0
0 0  0
0 0  0
0 0  0
0 0  0
0 0  0
0 0  0
0 0  0
0 0  0
0 0  0
0 0  0
0 0  0
0 0  0
0 0  0
0 0  0
0 0  0
0 0  0
0 0  0
0 0  0
0 0  0
0 0  0
0 0  0
0 0  0
0 0  0
0 0  0
0 0  0
0 0  0
0 0  0
0 0  0
0 0  0
0 0  0
0 0  0
0 0  0
0 0  0
0 0  0
0 0  0
0 0  0
0 0  0
0 0  0
0 0  0
0 0  0
0 0  0
0 0  0
0 0  0
0 0  0
0 0  0
0 0  0
0 0  0
0 0  0
0 0  0
0 0  0
0 0  0
0 0  0
0 0  0
0 0  0
0 0  0
0 0  0
0 0  0
0 0  0
0 0  0
0 0  0
0 0  0
0 0  0
0 0  0
0 0  0
0 0  0
0 0  0
0 0  0
0 0  0
0 0  0
0 0  0
0 0  0
0 0  0
0 0  0
0 0  0
0 0  0
0 0  0
0 0  0
0 0  0
0 0  0
0 0  0
0 0  0
0 0  0
0 0  0
0 0  0
0 0  0
0 0  0
0 0  0
0 0  0
0 0  0
0 0  0
0 0  0
0 0  0
0 0  0
0 0  0
0 0  0
0 0  0
0 0  0
0 0  0
0 0  0
0 0  0
0 0  0
0 0  0
0 0  0
0 0  0
0 0  0
0 0  0
0 0  0
0 0  0
0 0  0
0 0  0
0 0  0
0 0  0
0 0  0
0 0  0
0 0  0
0 0  0
0 0  0
0 0  0
0 0  0
0 0  0
0 0  0
0 0  0
0 0  0
0 0  0
0 0  0
0 0  0
0 0  0
0 0  0
0 0  0
0 0  0
0 0  0
0 0  0
0 0  0
0 0  0
0 0  0
0 0  0
0 0  0
0 0  0
0 0  0
0 0  0
0 0  0
0 0  0
0 0  0
0 0  0
0 0  0
0 0  0
0 0  0
0 0  0
0 0  0
0 0  0
0 0  0
0 0  0
0 0  0
0 0  0
0 0  0
0 0  0
0 0  0
0 0  0
0 0  0
0 0  0
0 0  0
0 0  0
0 0  0
0 0  0
0 0  0
0 0  0
0 0  0
0 0  0
0 0  0
0 0  0
0 0  0
0 0  0
0 0  0
0 0  0
0 0  0
0 0  0
0 0  0

SCALARS pressure double 1
LOOKUP_TABLE default
3.12369
3.12281
3.1211
3.11877
3.11608
3.11333
3.11081
3.10881
3.10754
3.10716
3.10773
3.10922
3.11152
3.11446
3.1178
3.12126
3.12459
3.12752
3.12985
3.13143
3.13215
3.13199
3.13095
3.12923
3.12698
3.12443
3.1218
3.11931
3.11716
3.11548
3.11435
3.11374
3.11359
3.11377
3.11413
3.11453
3.11488
3.11517
3.11538
3.11549
2.92065
2.91971
2.91789
2.91541
2.91255
2.90962
2.90694
2.90482
2.90347
2.90307
2.90367
2.90526
2.90772
2.91085
2.9144
2.9181
2.92163
2.92475
2.92722
2.92888
2.92963
2.92943
2.92831
2.92644
2.92403
2.92129
2.91848
2.91584
2.91356
2.91181
2.91064
2.91005
2.90994
2.9102
2.91065
2.91116
2.91164
2.91203
2.91233
2.91249
2.71474
2.71368
2.71161
2.7088
2.70555
2.70224
2.69921
2.69682
2.6953
2.69485
2.69552
2.69731
2.70007
2.7036
2.70761
2.71177
2.71575
2.71925
2.72201
2.72385
2.72465
2.72437
2.72305
2.7209
2.71813
2.71501
2.71183
2.70886
2.70634
2.70443
2.7032
2.70264
2.70265
2.70308
2.70375
2.7045
2.70523
2.70585
2.70632
2.70658
2.50602
2.50475
2.50228
2.49891
2.49503
2.49108
2.48749
2.48464
2.48285
2.48232
2.48311
2.48521
2.48847
2.49264
2.49737
2.50228
2.50698
2.51109
2.51431
2.51643
2.51732
2.51691
2.51527
2.51264
2.5093
2.50555
2.50176
2.49826
2.49534
2.49319
2.49188
2.49138
2.49159
2.49232
2.49337
2.49454
2.49568
2.49667
2.49744
2.49786
2.29457
2.29298
2.2899
2.28569
2.28086
2.27595
2.27152
2.26803
2.26583
2.26517
2.26613
2.2687
2.27269
2.27779
2.28359
2.2896
2.29535
2.30037
2.30428
2.30682
2.30782
2.30719
2.30507
2.30172
2.2975
2.29281
2.2881
2.28382
2.28031
2.27782
2.27641
2.27603
2.27656
2.27778
2.27941
2.28123
2.28302
2.2846
2.28581
2.28647
2.08052
2.07847
2.07448
2.06906
2.06285
2.05659
2.05096
2.04655
2.0438
2.04298
2.04418
2.04738
2.05238
2.0588
2.0661
2.07369
2.08093
2.08724
2.09213
2.09525
2.0964
2.09545
2.09261
2.0882
2.08269
2.07662
2.0706
2.06519
2.06086
2.0579
2.05637
2.0562
2.05724
2.05919
2.06173
2.06452
2.06729
2.06975
2.07162
2.07264
1.86403
1.86132
1.85604
1.84889
1.84074
1.83257
1.82528
1.81964
1.81615
1.81512
1.81663
1.8207
1.82706
1.83528
1.84467
1.85446
1.86379
1.8719
1.87816
1.8821
1.88345
1.88202
1.87812
1.87217
1.86479
1.85674
1.84883
1.84184
1.83637
1.8328
1.83114
1.83133
1.83312
1.83618
1.84007
1.84433
1.84855
1.8523
1.85515
1.8567
1.64536
1.6417
1.63461
1.62502
1.61414
1.60331
1.59379
1.5865
1.58206
1.58076
1.5827
1.58786
1.59602
1.60666
1.61895
1.63178
1.64401
1.65464
1.66281
1.66789
1.66949
1.66736
1.66192
1.65375
1.64369
1.63277
1.62216
1.61296
1.60596
1.60158
1.59983
1.60055
1.60347
1.60818
1.61409
1.62054
1.62689
1.63252
1.6368
1.63911
1.42487
1.41989
1.41024
1.39724
1.38255
1.36805
1.35552
1.34614
1.34053
1.33892
1.34134
1.34782
1.35823
1.37212
1.38843
1.4055
1.42174
1.43582
1.44664
1.4533
1.45526
1.45211
1.44448
1.43312
1.41917
1.40411
1.38961
1.37733
1.3683
1.36292
1.3611
1.36261
1.36717
1.37431
1.38326
1.39296
1.40243
1.4108
1.41712
1.42052
1.20316
1.19633
1.18313
1.16538
1.14535
1.12569
1.10926
1.09739
1.09047
1.08849
1.09137
1.09922
1.11226
1.13043
1.15241
1.17541
1.19713
1.21595
1.23038
1.23925
1.24167
1.23713
1.22642
1.21056
1.19104
1.16992
1.14971
1.13317
1.12155
1.11498
1.11313
1.11567
1.12247
1.13318
1.14682
1.16137
1.17539
1.18769
1.19693
1.20186
0.981283
0.971849
0.953697
0.929487
0.901907
0.874667
0.853413
0.839032
0.830946
0.828579
0.831625
0.840529
0.856216
0.879776
0.910168
0.941521
0.970527
0.995692
1.01498
1.02684
1.0299
1.02355
1.00872
0.986664
0.959241
0.929207
0.900211
0.877956
0.863361
0.855477
0.85351
0.857127
0.866647
0.882439
0.903662
0.925562
0.946075
0.963961
0.977326
0.98439
0.761035
0.747837
0.722637
0.690069
0.651839
0.61184
0.585647
0.570103
0.561784
0.55899
0.561326
0.570399
0.587773
0.617308
0.661635
0.704554
0.742469
0.776059
0.801733
0.817553
0.82158
0.813085
0.792985
0.762793
0.724419
0.681367
0.637482
0.608271
0.591215
0.582313
0.579829
0.583861
0.595695
0.617902
0.65259
0.685643
0.714936
0.740732
0.759889
0.769831
0.545348
0.526366
0.490261
0.44907
0.396861
0.329115
0.302556
0.290779
0.284422
0.281146
0.280943
0.288435
0.304236
0.336638
0.410055
0.467134
0.513264
0.558792
0.592733
0.61391
0.61953
0.608632
0.582024
0.541829
0.488708
0.428155
0.353402
0.319672
0.303811
0.295603
0.292094
0.294633
0.305345
0.331336
0.393942
0.443378
0.482399
0.519741
0.546943
0.560461
0.339118
0.310983
0.25372
0.21267
0.150881
0.00196753
0.00393193
0.00480097
0.00212363
0.00140755
-0.00336913
-0.00270176
0.00188334
0.013136
0.172364
0.234283
0.278824
0.347368
0.391123
0.420557
0.429091
0.415248
0.380138
0.329022
0.254692
0.182183
0.0210454
0.00780578
0.00443537
0.00170974
-0.00134328
-0.00282551
-0.00274243
0.00135252
0.137949
0.205665
0.246407
0.304097
0.342128
0.359027
0.15123
0.113273
-0.0032689
-0.00388593
-0.0065431
0
0
0
0
0
0
0
0
0
0.0299982
0.00985242
0.0126171
0.152536
0.198683
0.244526
0.257603
0.239787
0.190654
0.134726
0.0101296
0.0145418
0
0
0
0
0
0
0
0
-0.0529006
-0.00939861
-0.0109402
0.102208
0.151553
0.167792
-0.00500223
-0.00737197
0
0
0
0
0
0
0
0
0
0
0
0
0
0
0
0.0428159
0.00493972
0.0972982
0.112982
0.0917752
0.00428838
0.0037297
0
0
0
0
0
0
0
0
0
0
0
0
0
-0.0430171
-0.013385
-0.0142236
0
0
0
0
0
0
0
0
0
0
0
0
0
0
0
0
0
0
0
0.0252595
0.00119696
0.00619696
0
0
0
0
0
0
0
0
0
0
0
0
0
0
0
0
0
0
0
0
0
0
0
0
0
0
0
0
0
0
0
0
0
0
0
0
0
0
0
0
0
0
0
0
0
0
0
0
0
0
0
0
0
0
0
0
0
0
0
0
0
0
0
0
0
0
0
0
0
0
0
0
0
0
0
0
0
0
0
0
0
0
0
0
0
0
0
0
0
0
0
0
0
0
0
0
0
0
0
0
0
0
0
0
0
0
0
0
0
0
0
0
0
0
0
0
0
0
0
0
0
0
0
0
0
0
0
0
0
0
0
0
0
0
0
0
0
0
0
0
0
0
0
0
0
0
0
0
0
0
0
0
0
0
0
0
0
0
0
0
0
0
0
0
0
0
0
0
0
0
0
0
0
0
0
0
0
0
0
0
0
0
0
0
0
0
0
0
0
0
0
0
0
0
0
0
0
0
0
0
0
0
0
0
0
0
0
0
0
0
0
0
0
0
0
0
0
0
0
0
0
0
0
0
0
0
0
0
0
0
0
0
0
0
0
0
0
0
0
0
0
0
0
0
0
0
0
0
0
0
0
0
0
0
0
0
0
0
0
0
0
0
0
0
0
0
0
0
0
0
0
0
0
0
0
0
0
0
0
0
0
0
0
0
0
0
0
0
0
0
0
0
0
0
0
0
0
0
0
0
0
0
0
0
0
0
0
0
0
0
0
0
0
0
0
0
0
0
0
0
0
0
0
0
0
0
0
0
0
0
0
0
0
0
0
0
0
0
0
0
0
0
0
0
0
0
0
0
0
0
0
0
0
0
0
0
0
0
0
0
0
0
0
0
0
0
0
0
0
0
0
0
0
0
0
0
0
0
0
0
0
0
0
0
0
0
0
0
0
0
0
0
0
0
0
0
0
0
0
0
0
0
0
0
0
0
0
0
0
0
0
0
0
0
0
0
0
0
0
0
0
0
0
0
0
0
0
0
0
0
0
0
0
0
0
0
0
0
0
0
0
0
0
0
0
0
0
0
0
0
0
0
0
0
0
0
0
0
0
0
0
0
0
0
0
0
0
0
0
0
0
0
0
0
0
0
0
0
0
0
0
0
0
0
0
0
0
0
0
0
0
0
0
0
0
0
0
0
0
0
0
0
0
0
0
0
0
0
0
0
0
0
0
0
0
0
0
0
0
0
0
0
0
0
0
0
0
0
0
0
0
0
0
0
0
0
0
0
SCALARS rhs double 1
LOOKUP_TABLE default
-5.22133
-5.16587
-5.16213
-5.15818
-5.15394
-5.14974
-5.14587
-5.14259
-5.14007
-5.13843
-5.13763
-5.13753
-5.13799
-5.13878
-5.13972
-5.14063
-5.14137
-5.14185
-5.14206
-5.14201
-5.14242
-5.14248
-5.14027
-5.13926
-5.13807
-5.1368
-5.1356
-5.13465
-5.13418
-5.13437
-5.13534
-5.13702
-5.13911
-5.14104
-5.14204
-5.14142
-5.13922
-5.13656
-5.13483
-5.13429
-0.161763
-0.109793
-0.107472
-0.104898
-0.101978
-0.0990018
-0.0962421
-0.0939263
-0.0922192
-0.0912114
-0.0907829
-0.0910247
-0.0918931
-0.0930818
-0.09438
-0.0955904
-0.0965636
-0.0972208
-0.0975534
-0.0975986
-0.0981935
-0.0982596
-0.096157
-0.0952141
-0.094055
-0.0927775
-0.0915518
-0.0905935
-0.0902145
-0.09056
-0.0914345
-0.0929011
-0.0946567
-0.0961736
-0.0967701
-0.0959113
-0.0937441
-0.0913456
-0.0899087
-0.089513
-0.159677
-0.110411
-0.108054
-0.105406
-0.102408
-0.0993583
-0.0965338
-0.0941611
-0.092402
-0.0913448
-0.0907283
-0.0908711
-0.091702
-0.0928474
-0.0940874
-0.0952149
-0.0960771
-0.0966047
-0.0968131
-0.0967722
-0.0975366
-0.0974714
-0.0955364
-0.0947474
-0.0937321
-0.0925746
-0.0914453
-0.090567
-0.0903002
-0.0909002
-0.0918222
-0.093279
-0.094917
-0.0961615
-0.0963325
-0.0949899
-0.0924534
-0.0899332
-0.088584
-0.088287
-0.158613
-0.112638
-0.110177
-0.107377
-0.104226
-0.101038
-0.0980977
-0.0956295
-0.0937898
-0.0926615
-0.0917545
-0.0918044
-0.092574
-0.093643
-0.0947744
-0.0957452
-0.0963988
-0.096685
-0.0966629
-0.0964608
-0.0974928
-0.0972064
-0.095587
-0.0950803
-0.0943333
-0.0934024
-0.0924544
-0.0917223
-0.0915798
-0.0925984
-0.0935826
-0.0950029
-0.0964312
-0.0972286
-0.0967289
-0.0946459
-0.0915551
-0.0888476
-0.08761
-0.0874259
-0.158763
-0.11665
-0.113975
-0.110895
-0.107471
-0.104046
-0.100916
-0.0983058
-0.0963632
-0.0951588
-0.0938363
-0.0938312
-0.0945235
-0.0954785
-0.0964298
-0.0971316
-0.0974298
-0.097312
-0.0969095
-0.0964414
-0.0978504
-0.0972599
-0.0961608
-0.0961321
-0.0958509
-0.0953216
-0.0946958
-0.0942165
-0.0942043
-0.0959154
-0.0969744
-0.0983095
-0.0993895
-0.0994943
-0.0979957
-0.09484
-0.0909576
-0.0879685
-0.0868521
-0.0867749
-0.16086
-0.12315
-0.120049
-0.116457
-0.112547
-0.108713
-0.10527
-0.102453
-0.100403
-0.0991681
-0.0973342
-0.0973774
-0.0980088
-0.0988192
-0.099492
-0.0997551
-0.0994814
-0.0987359
-0.097762
-0.0969031
-0.0988466
-0.097854
-0.0975337
-0.0982614
-0.098748
-0.0989025
-0.0988284
-0.0987707
-0.0988802
-0.101725
-0.102866
-0.104029
-0.10454
-0.103578
-0.100587
-0.0958671
-0.0908449
-0.0874368
-0.0864592
-0.0864828
-0.165814
-0.132994
-0.129069
-0.124532
-0.119749
-0.115193
-0.111211
-0.108073
-0.105947
-0.104844
-0.102599
-0.102911
-0.103583
-0.104267
-0.104546
-0.10413
-0.102991
-0.101359
-0.0996369
-0.0983032
-0.101133
-0.0994401
-0.100191
-0.102011
-0.103693
-0.104971
-0.105818
-0.106455
-0.10683
-0.11119
-0.11261
-0.113482
-0.113087
-0.11047
-0.105205
-0.0981338
-0.0914244
-0.0874016
-0.0866242
-0.0867683
-0.174404
-0.146858
-0.141429
-0.135197
-0.128886
-0.123078
-0.11811
-0.114376
-0.112203
-0.111607
-0.10962
-0.110564
-0.111551
-0.112306
-0.112151
-0.110785
-0.108469
-0.105775
-0.103307
-0.101615
-0.106155
-0.102857
-0.104869
-0.108029
-0.111406
-0.114427
-0.116751
-0.118521
-0.120151
-0.125259
-0.128122
-0.128659
-0.126926
-0.12178
-0.11299
-0.102297
-0.093042
-0.0881303
-0.0876939
-0.0880147
-0.18656
-0.16459
-0.156733
-0.147698
-0.138933
-0.131141
-0.124294
-0.119142
-0.11668
-0.117247
-0.117234
-0.119139
-0.120855
-0.122439
-0.122228
-0.119856
-0.116256
-0.112712
-0.11002
-0.109021
-0.115727
-0.109754
-0.112406
-0.11668
-0.122072
-0.127526
-0.132009
-0.135541
-0.138876
-0.146229
-0.151564
-0.152219
-0.148903
-0.140147
-0.125954
-0.10957
-0.0964701
-0.0902714
-0.0903822
-0.0909075
-0.20076
-0.184963
-0.173909
-0.160637
-0.148532
-0.138229
-0.127526
-0.118501
-0.114471
-0.117408
-0.122079
-0.124304
-0.126289
-0.130903
-0.132467
-0.130074
-0.125796
-0.122491
-0.120975
-0.12342
-0.131382
-0.121792
-0.1229
-0.126991
-0.133968
-0.142254
-0.149419
-0.155347
-0.161903
-0.172531
-0.183244
-0.185933
-0.182125
-0.169374
-0.147553
-0.121743
-0.102976
-0.0949253
-0.0958835
-0.0964765
-0.215092
-0.207573
-0.193145
-0.172918
-0.157535
-0.145382
-0.126062
-0.106802
-0.0981749
-0.106801
-0.11772
-0.11693
-0.113782
-0.125608
-0.134714
-0.13722
-0.134225
-0.133216
-0.134431
-0.143514
-0.151224
-0.136244
-0.133141
-0.134681
-0.141652
-0.152725
-0.162565
-0.17038
-0.181313
-0.193891
-0.212305
-0.220964
-0.222231
-0.210123
-0.182276
-0.139026
-0.112948
-0.102497
-0.105333
-0.105803
-0.230187
-0.236388
-0.216579
-0.180185
-0.165605
-0.150522
-0.115229
-0.0777045
-0.0653512
-0.0767241
-0.0824119
-0.0872096
-0.0723489
-0.0847953
-0.111479
-0.136947
-0.137535
-0.139733
-0.141122
-0.154943
-0.157156
-0.1404