# vtk DataFile Version 4.0
Nusif Fluid VTK output
ASCII
DATASET STRUCTURED_POINTS
DIMENSIONS 40 30 1
ORIGIN 0 0 0 
SPACING 0.2 0.2 1
POINT_DATA 1200 

VECTORS velocity double
0.00182607 -0.00179486  0
0.00529248 -0.00165487  0
0.00830962 -0.00139161  0
0.0107071 -0.00103569  0
0.0123361 -0.000623168  0
0.0131201 -0.000190261  0
0.0130517 0.000230284  0
0.0121829 0.000611229  0
0.0106145 0.000931182  0
0.00848482 0.0011741  0
0.00595929 0.00132863  0
0.00322141 0.00138798  0
0.000463097 0.00135054  0
-0.00212585 0.0012201  0
-0.00437009 0.00100704  0
-0.00612278 0.00072951  0
-0.00728114 0.000413644  0
-0.00780155 9.24846e-05  0
-0.0077099 -0.000197667  0
-0.00710154 -0.000423698  0
-0.00612697 -0.000563552  0
-0.00496285 -0.000612928  0
-0.00377424 -0.000587908  0
-0.00268 -0.000519571  0
-0.0017308 -0.000444483  0
-0.000904318 -0.000398166  0
-0.000114736 -0.000408721  0
0.000769566 -0.00049408  0
0.00190317 -0.00065966  0
0.00343662 -0.000895761  0
0.00548227 -0.00117358  0
0.00807053 -0.00143989  0
0.0110968 -0.00161312  0
0.0142673 -0.00158553  0
0.017065 -0.00124166  0
0.0187781 -0.000501965  0
0.0186338 0.000614906  0
0.0160508 0.0019361  0
0.0109389 0.00314335  0
0.00388961 0.00387329  0
0.00196349 -0.00556976  0
0.00568901 -0.00513175  0
0.00891969 -0.00431199  0
0.0114656 -0.00320838  0
0.0131718 -0.00193491  0
0.0139649 -0.000604  0
0.0138458 0.000684471  0
0.0128778 0.00184834  0
0.0111731 0.00282378  0
0.00887992 0.00356293  0
0.0061736 0.00403195  0
0.00324784 0.00421065  0
0.000305657 0.00409279  0
-0.0024508 0.00368917  0
-0.00483219 0.00303088  0
-0.00667756 0.00217241  0
-0.00787235 0.00119379  0
-0.00836653 0.000197866  0
-0.00818863 -0.000700878  0
-0.00744831 -0.00139686  0
-0.00632128 -0.0018191  0
-0.00501549 -0.00195429  0
-0.00372506 -0.00185398  0
-0.00258682 -0.00161598  0
-0.00165718 -0.00135819  0
-0.000909357 -0.00119158  0
-0.000245345 -0.00120337  0
0.000482314 -0.00144787  0
0.00144548 -0.00194121  0
0.00281106 -0.00265392  0
0.00470541 -0.00349825  0
0.00716927 -0.0043122  0
0.0101038 -0.00484838  0
0.0132176 -0.00478294  0
0.0159972 -0.00377142  0
0.0177399 -0.00157926  0
0.0176901 0.00173421  0
0.0152828 0.0056542  0
0.0104321 0.0092347  0
0.00371184 0.0113981  0
0.00225091 -0.00982079  0
0.00651519 -0.00902867  0
0.010185 -0.00755824  0
0.0130314 -0.00559651  0
0.0148893 -0.00335214  0
0.0156936 -0.0010247  0
0.0154652 0.0012132  0
0.014291 0.00322336  0
0.012306 0.00490108  0
0.00967936 0.00616867  0
0.00660561 0.00697062  0
0.00329783 0.00727093  0
-1.89246e-05 0.00705707  0
-0.00311624 0.00634485  0
-0.00577663 0.00518396  0
-0.00781071 0.00366633  0
-0.0090791 0.00193105  0
-0.00951803 0.000161959  0
-0.00916111 -0.00143135  0
-0.0081474 -0.00265156  0
-0.00670554 -0.00336473  0
-0.0051084 -0.00354483  0
-0.00360783 -0.00328885  0
-0.00237928 -0.00278262  0
-0.00149152 -0.00224409  0
-0.000906565 -0.00187428  0
-0.000501454 -0.00182677  0
-9.66349e-05 -0.00219506  0
0.000513331 -0.0030062  0
0.00152832 -0.00420937  0
0.00310462 -0.00565417  0
0.00530632 -0.00706345  0
0.00804852 -0.00801627  0
0.0110459 -0.00796911  0
0.0137919 -0.00635426  0
0.015602 -0.00279309  0
0.0157522 0.00260373  0
0.0137108 0.00898926  0
0.0093983 0.0148188  0
0.00335027 0.0183383  0
0.00270767 -0.014824  0
0.00782289 -0.0135737  0
0.0121747 -0.0112828  0
0.0154775 -0.00826847  0
0.0175557 -0.00486275  0
0.0183621 -0.00137042  0
0.0179518 0.0019535  0
0.0164514 0.00491432  0
0.0140323 0.00737148  0
0.0108939 0.00922216  0
0.00725677 0.010388  0
0.00336276 0.0108155  0
-0.000528007 0.0104811  0
-0.00414816 0.00940026  0
-0.0072363 0.00763965  0
-0.00955814 0.00532978  0
-0.0109364 0.00267776  0
-0.0112858 -3.25345e-05  0
-0.0106476 -0.00246757  0
-0.00920716 -0.00430567  0
-0.00727517 -0.00532232  0
-0.00522462 -0.00547339  0
-0.00340052 -0.00492347  0
-0.00203603 -0.0039801  0
-0.00121556 -0.00299465  0
-0.000884478 -0.00228062  0
-0.000882327 -0.00206962  0
-0.000983589 -0.00249866  0
-0.0009335 -0.0036065  0
-0.000482749 -0.00531962  0
0.000571787 -0.0074205  0
0.00233422 -0.00950784  0
0.00474785 -0.0109751  0
0.00754345 -0.0110513  0
0.0102291 -0.00895239  0
0.0121503 -0.00417518  0
0.0126317 0.00310519  0
0.0111879 0.0117238  0
0.00774549 0.01959  0
0.00277376 0.0243379  0
0.00334732 -0.0209327  0
0.00964275 -0.0190566  0
0.0149212 -0.0156843  0
0.0188293 -0.0113312  0
0.0211866 -0.00648767  0
0.0219736 -0.00158967  0
0.0212961 0.00301059  0
0.0193415 0.00706317  0
0.0163318 0.0104042  0
0.012501 0.0129125  0
0.00810195 0.0144881  0
0.00341462 0.0150521  0
-0.00125486 0.0145611  0
-0.00558211 0.0130248  0
-0.0092444 0.0105234  0
-0.0119479 0.00722965  0
-0.0134647 0.00343177  0
-0.0136827 -0.000459781  0
-0.0126554 -0.00394705  0
-0.0106304 -0.0065342  0
-0.00803059 -0.00786848  0
-0.00536861 -0.00788252  0
-0.00311124 -0.00683933  0
-0.00156643 -0.00521784  0
-0.000839585 -0.00354918  0
-0.000854008 -0.00228872  0
-0.00140453 -0.00176012  0
-0.00221064 -0.00214886  0
-0.00295867 -0.00350747  0
-0.00333691 -0.00574121  0
-0.003077 -0.00856437  0
-0.00201147 -0.0114439  0
-0.000143467 -0.0135734  0
0.00229842 -0.0139438  0
0.00485873 -0.0115598  0
0.00693328 -0.00581797  0
0.00791905 0.00302616  0
0.00739191 0.0135189  0
0.00527 0.0231044  0
0.00191309 0.0288975  0
0.00414512 -0.0284894  0
0.0118939 -0.0257388  0
0.0182855 -0.0209327  0
0.0229147 -0.0148793  0
0.0256017 -0.00824186  0
0.0263451 -0.00162276  0
0.0253168 0.00449348  0
0.0227919 0.00980578  0
0.0190554 0.0141554  0
0.0143759 0.0174193  0
0.00903605 0.0194692  0
0.00336024 0.0201845  0
-0.00227883 0.0194884  0
-0.00747933 0.0173772  0
-0.0118387 0.0139453  0
-0.0149894 0.00941526  0
-0.0166483 0.00417584  0
-0.0166791 -0.00120161  0
-0.0151565 -0.00600266  0
-0.012409 -0.00949867  0
-0.00899761 -0.0111627  0
-0.00559731 -0.010899  0
-0.00281714 -0.00910939  0
-0.00105123 -0.00650789  0
-0.000430272 -0.00385736  0
-0.000860263 -0.00178743  0
-0.00209628 -0.000727263  0
-0.00380934 -0.00091599  0
-0.00563019 -0.002426  0
-0.00717942 -0.00515083  0
-0.00810462 -0.0087461  0
-0.0081405 -0.0125494  0
-0.00718825 -0.0155467  0
-0.00538394 -0.0164761  0
-0.00309871 -0.014133  0
-0.000841879 -0.00783651  0
0.000889629 0.00206682  0
0.00174385 0.0138904  0
0.00160323 0.0247347  0
0.000643214 0.0313235  0
0.00497645 -0.0376871  0
0.0142009 -0.0337243  0
0.0216967 -0.027102  0
0.0270989 -0.0190074  0
0.0301946 -0.010161  0
0.0309031 -0.00141895  0
0.0294664 0.0064934  0
0.0263045 0.0132331  0
0.0217803 0.0187296  0
0.0161671 0.0228801  0
0.00975919 0.0255002  0
0.00294062 0.0263926  0
-0.00381884 0.0254247  0
-0.0100062 0.0225755  0
-0.0151174 0.0179649  0
-0.0187078 0.0118849  0
-0.0204499 0.00485533  0
-0.0202038 -0.00234916  0
-0.0180903 -0.008744  0
-0.0145369 -0.0133107  0
-0.0102466 -0.0153057  0
-0.00605124 -0.0146054  0
-0.00269247 -0.0117961  0
-0.000650378 -0.00788424  0
-9.5022e-05 -0.00391314  0
-0.000940227 -0.000713259  0
-0.00293374 0.00117025  0
-0.00573227 0.00143907  0
-0.00893859 -1.40581e-05  0
-0.0121143 -0.00309919  0
-0.014802 -0.00744724  0
-0.0165828 -0.0122952  0
-0.0171704 -0.0164301  0
-0.0165122 -0.0183206  0
-0.014803 -0.016549  0
-0.0123771 -0.0103698  0
-0.00956889 -0.000206468  0
-0.00665064 0.0121243  0
-0.00382912 0.023553  0
-0.00123203 0.0306014  0
0.00548328 -0.0482357  0
0.0155042 -0.0426476  0
0.023615 -0.0340598  0
0.0298256 -0.0239352  0
0.0336293 -0.0124039  0
0.0344359 -0.00096047  0
0.0325829 0.00905754  0
0.0288252 0.0173221  0
0.023614 0.0241113  0
0.0171172 0.0293456  0
0.00959972 0.0326982  0
0.00153909 0.0338134  0
-0.00642872 0.0324716  0
-0.0136226 0.028651  0
-0.0194136 0.0225338  0
-0.0232928 0.0145278  0
-0.0249293 0.0053329  0
-0.0242361 -0.00402407  0
-0.02143 -0.0122468  0
-0.0170534 -0.0179963  0
-0.0119181 -0.0203045  0
-0.00694648 -0.0190328  0
-0.00295837 -0.0149753  0
-0.000509581 -0.00945646  0
0.000154097 -0.00382131  0
-0.000952984 0.000884861  0
-0.00364652 0.00399575  0
-0.00764294 0.00514389  0
-0.0125774 0.00415599  0
-0.0179813 0.00104314  0
-0.0232688 -0.00388265  0
-0.0277806 -0.00983695  0
-0.0309077 -0.0154444  0
-0.0322555 -0.0188883  0
-0.0316816 -0.0185367  0
-0.0292016 -0.0135609  0
-0.0248921 -0.00440633  0
-0.018964 0.00720454  0
-0.0117917 0.0182057  0
-0.00397302 0.0252599  0
0.00484072 -0.0586625  0
0.0132763 -0.0509214  0
0.0203599 -0.0412623  0
0.0277353 -0.0305986  0
0.0334852 -0.0155718  0
0.0348575 -0.000246852  0
0.0325797 0.0122009  0
0.0284624 0.0217814  0
0.0230128 0.0300426  0
0.0159073 0.0367477  0
0.00730582 0.0411478  0
-0.00209798 0.0425621  0
-0.0113343 0.040662  0
-0.0194445 0.0355005  0
-0.0256535 0.0274206  0
-0.0294338 0.0170368  0
-0.0305422 0.00530516  0
-0.0290544 -0.00644088  0
-0.0253673 -0.0165869  0
-0.0201462 -0.0235179  0
-0.0142207 -0.0261082  0
-0.00846219 -0.0242241  0
-0.0036697 -0.0188301  0
-0.000469331 -0.0115169  0
0.000741783 -0.00390256  0
-0.000208406 0.00275556  0
-0.00332082 0.00766204  0
-0.00848131 0.0103643  0
-0.0154568 0.0105739  0
-0.0238145 0.00811375  0
-0.0328376 0.00308289  0
-0.0415205 -0.00388364  0
-0.0487079 -0.0113603  0
-0.0534202 -0.0171905  0
-0.0549172 -0.0195903  0
-0.0526714 -0.0175126  0
-0.0463708 -0.0113446  0
-0.0362811 -0.00215473  0
-0.0230133 0.00684506  0
-0.00781905 0.0133281  0
0.00177871 -0.0653995  0
0.0031028 -0.0542071  0
0.00445925 -0.0467065  0
0.0142967 -0.0426544  0
0.0262191 -0.0214721  0
0.0291719 0.00104623  0
0.0259811 0.0160962  0
0.0221167 0.0255899  0
0.0177306 0.0357938  0
0.0106329 0.0449251  0
0.000876806 0.0510551  0
-0.0101978 0.0528616  0
-0.0208807 0.0500112  0
-0.0297508 0.042862  0
-0.0358794 0.0321273  0
-0.0388317 0.0187935  0
-0.038622 0.00417822  0
-0.0356552 -0.0100377  0
-0.0306156 -0.0219864  0
-0.0242831 -0.0299416  0
-0.0173503 -0.0328128  0
-0.0104454 -0.0304533  0
-0.0042602 -0.0238494  0
0.000476172 -0.0147059  0
0.00310051 -0.00482129  0
0.00311362 0.00433815  0
0.000214162 0.011817  0
-0.00575794 0.0170662  0
-0.0148374 0.0196497  0
-0.0267977 0.0190771  0
-0.0409412 0.0150056  0
-0.0558592 0.00751251  0
-0.0693551 -0.00235663  0
-0.079407 -0.0117147  0
-0.084253 -0.0190089  0
-0.0825835 -0.0222957  0
-0.0736514 -0.0220808  0
-0.058394 -0.0170521  0
-0.037502 -0.0127037  0
-0.0127358 -0.00736962  0
-0.00380378 -0.0635073  0
-0.0164003 -0.0451094  0
-0.0325801 -0.0412791  0
-0.0195077 -0.0712856  0
0.00963688 -0.0341976  0
0.0147666 0.00540091  0
0.00748523 0.0219279  0
0.00521421 0.02561  0
0.00525739 0.0398347  0
-0.000895747 0.053855  0
-0.0124736 0.0631808  0
-0.0262739 0.0653339  0
-0.0389506 0.0606226  0
-0.0484021 0.0502969  0
-0.0536602 0.0358043  0
-0.0546115 0.0187455  0
-0.0517818 0.000912158  0
-0.0461095 -0.0156854  0
-0.0386477 -0.0291152  0
-0.030242 -0.0378262  0
-0.0212474 -0.0411311  0
-0.0119058 -0.0386575  0
-0.00288899 -0.0311234  0
0.00485493 -0.0201888  0
0.010301 -0.00768615  0
0.0125462 0.00466641  0
0.0109921 0.0156626  0
0.00521369 0.02469  0
-0.00526049 0.0312967  0
-0.0208463 0.0346916  0
-0.0415045 0.0339064  0
-0.0656665 0.0274034  0
-0.0885701 0.0138621  0
-0.106365 -0.000377681  0
-0.115711 -0.0164472  0
-0.114409 -0.0281222  0
-0.101641 -0.0382475  0
-0.0810262 -0.0370505  0
-0.0529304 -0.0419858  0
-0.0179126 -0.0381641  0
-0.00834947 -0.0514244  0
-0.0288372 -0.0242543  0
-0.075654 0.000711147  0
-0.066457 -0.135767  0
-0.00722194 -0.0583898  0
-0.00640749 0.0233546  0
-0.0281608 0.0327171  0
-0.0251434 0.0137855  0
-0.0146256 0.0408108  0
-0.0203399 0.0644608  0
-0.0362262 0.0797556  0
-0.0552431 0.0812942  0
-0.0707743 0.0725893  0
-0.0803689 0.057096  0
-0.0835511 0.0371657  0
-0.0808069 0.0153114  0
-0.0734591 -0.00611112  0
-0.0631526 -0.0249211  0
-0.0512585 -0.0395159  0
-0.0386746 -0.0486958  0
-0.0251617 -0.0530502  0
-0.0105306 -0.0509924  0
0.00398771 -0.0426051  0
0.0169874 -0.0297326  0
0.0271539 -0.0140373  0
0.0333017 0.00234145  0
0.0347969 0.017762  0
0.0312163 0.0316637  0
0.0215511 0.0441744  0
0.00397627 0.0546844  0
-0.0237106 0.0619663  0
-0.061453 0.0609532  0
-0.0967695 0.0382361  0
-0.123846 0.0198219  0
-0.138949 -0.0124982  0
-0.137236 -0.0353874  0
-0.119582 -0.0617044  0
-0.094728 -0.0593616  0
-0.0634483 -0.079349  0
-0.0216698 -0.0778958  0
-0.0238289 -0.0215375  0
-0.0680695 -0.00605805  0
-0.0461724 -0.072163  0
-0.0038636 -0.179716  0
0.00165075 -0.0793382  0
-0.0297374 0.0747279  0
-0.0676589 0.0407981  0
-0.0467029 -0.0185618  0
-0.0321047 0.0477488  0
-0.0487877 0.0796291  0
-0.0740943 0.105492  0
-0.101932 0.102126  0
-0.120034 0.0851057  0
-0.128281 0.0621364  0
-0.127844 0.0345853  0
-0.119429 0.00644804  0
-0.105197 -0.0191128  0
-0.087595 -0.0401131  0
-0.0682113 -0.0558877  0
-0.048651 -0.0647545  0
-0.0273189 -0.072123  0
-0.00308309 -0.071073  0
0.0204335 -0.0608459  0
0.0412545 -0.0455989  0
0.0583579 -0.0257275  0
0.0703691 -0.00441479  0
0.0769756 0.0161279  0
0.0780743 0.0354892  0
0.0723485 0.0554471  0
0.056756 0.0762836  0
0.0262102 0.0983017  0
-0.0305378 0.118807  0
-0.0777671 0.0626255  0
-0.107805 0.0522437  0
-0.137879 2.81438e-05  0
-0.140745 -0.0469132  0
-0.121448 -0.0872821  0
-0.0932461 -0.0869904  0
-0.0601754 -0.116222  0
-0.0217435 -0.121384  0
0 0  0
0 0  0
-0.0019318 -0.0898579  0
-0.0512953 -0.0898579  0
-0.144022 -0.0424263  0
-0.0634073 0.0766872  0
0.0625033 0.041744  0
0.0448372 -0.0229446  0
-0.0275216 0.109744  0
-0.0891149 0.0956904  0
-0.121706 0.147037  0
-0.160396 0.126818  0
-0.177237 0.0950667  0
-0.182493 0.0653894  0
-0.178974 0.0270865  0
-0.16379 -0.0099414  0
-0.140112 -0.0409237  0
-0.112018 -0.0642886  0
-0.0815752 -0.0818297  0
-0.0548736 -0.0853662  0
-0.0256614 -0.102348  0
0.011654 -0.102691  0
0.045431 -0.0868125  0
0.075071 -0.0703842  0
0.101931 -0.0451958  0
0.122792 -0.0181105  0
0.137122 0.00859559  0
0.143603 0.0351466  0
0.140143 0.0646788  0
0.123647 0.0988396  0
0.105692 0.123943  0
0.0271151 0.228262  0
-0.0616098 0.0889727  0
-0.0777236 0.0718957  0
-0.0805914 0.0411344  0
-0.0860082 -0.0271958  0
-0.0969571 -0.0495507  0
-0.0763418 -0.0516863  0
-0.0402978 -0.066455  0
-0.0166345 -0.071564  0
0 0  0
0 0  0
0 0  0
0 0  0
0 0  0
0.0312517 0.020872  0
0.0860145 0.020872  0
-0.0165091 -0.0026392  0
-0.102966 0.133477  0
-0.0633876 0.102518  0
-0.1156 0.224866  0
-0.180675 0.152534  0
-0.196474 0.101698  0
-0.209049 0.0762956  0
-0.212092 0.0154107  0
-0.189994 -0.0358406  0
-0.15452 -0.0744705  0
-0.11402 -0.0996324  0
-0.0694983 -0.121747  0
-0.0462086 -0.0957373  0
-0.0212525 -0.146442  0
0.0287527 -0.146215  0
0.0639529 -0.112563  0
0.0965589 -0.107175  0
0.136994 -0.0759934  0
0.172086 -0.0435604  0
0.200108 -0.00860089  0
0.209142 0.0365301  0
0.196112 0.0794848  0
0.131215 0.165199  0
0.0767683 0.129833  0
0.113529 0.215353  0
0.0528789 0.0525432  0
-0.0611282 0.0359479  0
-0.0388618 0.0359479  0
0 0  0
0 0  0
0 0  0
0 0  0
0 0  0
0 0  0
0 0  0
0 0  0
0 0  0
0 0  0
0 0  0
0 0  0
0 0  0
-0.0316938 0.0512591  0
-0.150668 0.0512591  0
-0.16569 0.221201  0
-0.0934312 0.165323  0
-0.115029 0.126159  0
-0.172708 0.12194  0
-0.193801 -0.00631935  0
-0.157929 -0.072375  0
-0.113485 -0.118151  0
-0.0697031 -0.140459  0
-0.012439 -0.18293  0
-0.0127044 -0.0578029  0
-0.0177381 -0.204449  0
0.0368384 -0.192939  0
0.0500096 -0.114359  0
0.0703968 -0.158593  0
0.12394 -0.118847  0
0.172123 -0.0842774  0
0.219913 -0.0439922  0
0.219385 0.063117  0
0.195226 0.0898598  0
0.180904 0.154753  0
0.121675 0.0649163  0
0.0383841 0.0649163  0
0 0  0
0 0  0
0 0  0
0 0  0
0 0  0
0 0  0
0 0  0
0 0  0
0 0  0
0 0  0
0 0  0
0 0  0
0 0  0
0 0  0
0 0  0
0 0  0
0 0  0
0 0  0
-0.0467156 0.0826617  0
-0.0846481 0.0826617  0
-0.111378 0.0738785  0
-0.0979006 0.0683203  0
-0.04891 -0.0213808  0
-0.04129 -0.100953  0
-0.03367 -0.141786  0
-0.0195136 -0.190364  0
-0.00535721 -0.220046  0
0.0804292 -0.120271  0
0.0796353 -0.118361  0
-0.0289094 -0.107621  0
0.000675356 -0.146706  0
0.0522244 -0.188185  0
0.0636119 -0.154333  0
0.083151 -0.116663  0
0.0919174 -0.0683116  0
0.0925322 0.0872005  0
0.143879 0.0885301  0
0.0976132 0.0449299  0
0 0  0
0 0  0
0 0  0
0 0  0
0 0  0
0 0  0
0 0  0
0 0  0
0 0  0
0 0  0
0 0  0
0 0  0
0 0  0
0 0  0
0 0  0
0 0  0
0 0  0
0 0  0
0 0  0
0 0  0
0 0  0
0 0  0
0 0  0
-0.024455 -0.0106904  0
-0.00531403 -0.0106904  0
0.0189123 -0.0542864  0
-0.0170637 -0.0708928  0
-0.0195136 -0.110023  0
-0.00535721 -0.110023  0
-0.0026786 -0.110023  0
0 0  0
0 0  0
0.0261122 -0.0940926  0
0.040992 -0.0940926  0
0.0319263 -0.0828602  0
0.034754 -0.0624071  0
-0.0140899 -0.0344632  0
0.0144688 0.0436002  0
0.0462661 0.0436002  0
0 0  0
0 0  0
0 0  0
0 0  0
0 0  0
0 0  0
0 0  0
0 0  0
0 0  0
0 0  0
0 0  0
0 0  0
0 0  0
0 0  0
0 0  0
0 0  0
0 0  0
0 0  0
0 0  0
0 0  0
0 0  0
0 0  0
0 0  0
0 0  0
0 0  0
0 0  0
0 0  0
0 0  0
0 0  0
0 0  0
0 0  0
0 0  0
0 0  0
0 0  0
0 0  0
0 0  0
0 0  0
0 0  0
0 0  0
0 0  0
0 0  0
0 0  0
0 0  0
0 0  0
0 0  0
0 0  0
0 0  0
0 0  0
0 0  0
0 0  0
0 0  0
0 0  0
0 0  0
0 0  0
0 0  0
0 0  0
0 0  0
0 0  0
0 0  0
0 0  0
0 0  0
0 0  0
0 0  0
0 0  0
0 0  0
0 0  0
0 0  0
0 0  0
0 0  0
0 0  0
0 0  0
0 0  0
0 0  0
0 0  0
0 0  0
0 0  0
0 0  0
0 0  0
0 0  0
0 0  0
0 0  0
0 0  0
0 0  0
0 0  0
0 0  0
0 0  0
0 0  0
0 0  0
0 0  0
0 0  0
0 0  0
0 0  0
0 0  0
0 0  0
0 0  0
0 0  0
0 0  0
0 0  0
0 0  0
0 0  0
0 0  0
0 0  0
0 0  0
0 0  0
0 0  0
0 0  0
0 0  0
0 0  0
0 0  0
0 0  0
0 0  0
0 0  0
0 0  0
0 0  0
0 0  0
0 0  0
0 0  0
0 0  0
0 0  0
0 0  0
0 0  0
0 0  0
0 0  0
0 0  0
0 0  0
0 0  0
0 0  0
0 0  0
0 0  0
0 0  0
0 0  0
0 0  0
0 0  0
0 0  0
0 0  0
0 0  0
0 0  0
0 0  0
0 0  0
0 0  0
0 0  0
0 0  0
0 0  0
0 0  0
0 0  0
0 0  0
0 0  0
0 0  0
0 0  0
0 0  0
0 0  0
0 0  0
0 0  0
0 0  0
0 0  0
0 0  0
0 0  0
0 0  0
0 0  0
0 0  0
0 0  0
0 0  0
0 0  0
0 0  0
0 0  0
0 0  0
0 0  0
0 0  0
0 0  0
0 0  0
0 0  0
0 0  0
0 0  0
0 0  0
0 0  0
0 0  0
0 0  0
0 0  0
0 0  0
0 0  0
0 0  0
0 0  0
0 0  0
0 0  0
0 0  0
0 0  0
0 0  0
0 0  0
0 0  0
0 0  0
0 0  0
0 0  0
0 0  0
0 0  0
0 0  0
0 0  0
0 0  0
0 0  0
0 0  0
0 0  0
0 0  0
0 0  0
0 0  0
0 0  0
0 0  0
0 0  0
0 0  0
0 0  0
0 0  0
0 0  0
0 0  0
0 0  0
0 0  0
0 0  0
0 0  0
0 0  0
0 0  0
0 0  0
0 0  0
0 0  0
0 0  0
0 0  0
0 0  0
0 0  0
0 0  0
0 0  0
0 0  0
0 0  0
0 0  0
0 0  0
0 0  0
0 0  0
0 0  0
0 0  0
0 0  0
0 0  0
0 0  0
0 0  0
0 0  0
0 0  0
0 0  0
0 0  0
0 0  0
0 0  0
0 0  0
0 0  0
0 0  0
0 0  0
0 0  0
0 0  0
0 0  0
0 0  0
0 0  0
0 0  0
0 0  0
0 0  0
0 0  0
0 0  0
0 0  0
0 0  0
0 0  0
0 0  0
0 0  0
0 0  0
0 0  0
0 0  0
0 0  0
0 0  0
0 0  0
0 0  0
0 0  0
0 0  0
0 0  0
0 0  0
0 0  0
0 0  0
0 0  0
0 0  0
0 0  0
0 0  0
0 0  0
0 0  0
0 0  0
0 0  0
0 0  0
0 0  0
0 0  0
0 0  0
0 0  0
0 0  0
0 0  0
0 0  0
0 0  0
0 0  0
0 0  0
0 0  0
0 0  0
0 0  0
0 0  0
0 0  0
0 0  0
0 0  0
0 0  0
0 0  0
0 0  0
0 0  0
0 0  0
0 0  0
0 0  0
0 0  0
0 0  0
0 0  0
0 0  0
0 0  0
0 0  0
0 0  0
0 0  0
0 0  0
0 0  0
0 0  0
0 0  0
0 0  0
0 0  0
0 0  0
0 0  0
0 0  0
0 0  0
0 0  0
0 0  0
0 0  0
0 0  0
0 0  0
0 0  0
0 0  0
0 0  0
0 0  0
0 0  0
0 0  0
0 0  0
0 0  0
0 0  0
0 0  0
0 0  0
0 0  0
0 0  0
0 0  0
0 0  0
0 0  0
0 0  0
0 0  0
0 0  0
0 0  0
0 0  0
0 0  0
0 0  0
0 0  0
0 0  0
0 0  0
0 0  0
0 0  0
0 0  0
0 0  0
0 0  0
0 0  0
0 0  0
0 0  0
0 0  0
0 0  0
0 0  0
0 0  0
0 0  0
0 0  0
0 0  0
0 0  0
0 0  0
0 0  0
0 0  0
0 0  0
0 0  0
0 0  0
0 0  0
0 0  0
0 0  0
0 0  0
0 0  0
0 0  0
0 0  0
0 0  0
0 0  0
0 0  0
0 0  0
0 0  0
0 0  0
0 0  0
0 0  0
0 0  0
0 0  0
0 0  0
0 0  0
0 0  0
0 0  0
0 0  0
0 0  0
0 0  0
0 0  0
0 0  0
0 0  0
0 0  0
0 0  0
0 0  0
0 0  0
0 0  0
0 0  0
0 0  0
0 0  0
0 0  0
0 0  0
0 0  0
0 0  0
0 0  0
0 0  0
0 0  0
0 0  0
0 0  0
0 0  0
0 0  0
0 0  0
0 0  0
0 0  0
0 0  0
0 0  0
0 0  0
0 0  0
0 0  0
0 0  0
0 0  0
0 0  0
0 0  0
0 0  0
0 0  0
0 0  0
0 0  0
0 0  0
0 0  0
0 0  0
0 0  0
0 0  0
0 0  0
0 0  0
0 0  0
0 0  0
0 0  0
0 0  0
0 0  0
0 0  0
0 0  0
0 0  0
0 0  0
0 0  0
0 0  0
0 0  0
0 0  0
0 0  0
0 0  0
0 0  0
0 0  0
0 0  0
0 0  0
0 0  0
0 0  0
0 0  0
0 0  0
0 0  0
0 0  0
0 0  0
0 0  0
0 0  0
0 0  0
0 0  0
0 0  0
0 0  0
0 0  0
0 0  0
0 0  0
0 0  0
0 0  0
0 0  0
0 0  0
0 0  0
0 0  0
0 0  0

SCALARS pressure double 1
LOOKUP_TABLE default
1.71567
1.71708
1.7197
1.72342
1.72812
1.73365
1.73982
1.74645
1.75335
1.76033
1.76721
1.77384
1.78009
1.78585
1.79104
1.79558
1.79944
1.80258
1.80498
1.80662
1.80751
1.80765
1.80704
1.8057
1.80368
1.80102
1.79776
1.79397
1.78974
1.78516
1.78036
1.77546
1.7706
1.76594
1.76163
1.75783
1.75467
1.75226
1.75066
1.74988
1.52401
1.52546
1.52816
1.53201
1.53687
1.54257
1.54893
1.55574
1.56282
1.56996
1.57699
1.58375
1.59011
1.59595
1.6012
1.60579
1.60968
1.61283
1.61523
1.61687
1.61774
1.61785
1.6172
1.61584
1.61378
1.61106
1.60773
1.60386
1.59952
1.59483
1.58989
1.58484
1.57983
1.57501
1.57055
1.56662
1.56336
1.56087
1.55922
1.55841
1.34049
1.34203
1.34492
1.34903
1.35422
1.36028
1.36702
1.37422
1.38165
1.38913
1.39646
1.40348
1.41005
1.41607
1.42145
1.42613
1.43008
1.43326
1.43567
1.4373
1.43814
1.43821
1.43754
1.43611
1.43397
1.43114
1.42767
1.42363
1.41909
1.41416
1.40894
1.40359
1.39826
1.39313
1.38837
1.38417
1.3807
1.37806
1.3763
1.37545
1.16497
1.16666
1.16985
1.17439
1.1801
1.18674
1.19407
1.20186
1.20986
1.21786
1.22564
1.23306
1.23997
1.24623
1.2518
1.25662
1.26065
1.26388
1.2663
1.2679
1.26872
1.26876
1.26801
1.26651
1.26425
1.26127
1.25761
1.25332
1.24847
1.24317
1.23754
1.23172
1.2259
1.22027
1.21505
1.21044
1.20664
1.20376
1.20187
1.20094
0.997257
0.999173
1.00281
1.00798
1.01444
1.0219
1.03008
1.0387
1.04748
1.05618
1.0646
1.07255
1.07988
1.08649
1.09231
1.09729
1.10142
1.10469
1.10712
1.10872
1.10951
1.10948
1.10867
1.10706
1.10467
1.1015
1.09758
1.09297
1.08771
1.08192
1.07571
1.06925
1.06274
1.05642
1.05054
1.04537
1.04113
1.03794
1.03586
1.03485
0.837075
0.83932
0.843591
0.849649
0.857148
0.865733
0.875045
0.884755
0.894543
0.904175
0.913395
0.922022
0.929901
0.936914
0.943021
0.94819
0.952422
0.955737
0.958177
0.959752
0.960494
0.960417
0.959523
0.95781
0.955267
0.951887
0.947675
0.942659
0.936895
0.930474
0.923524
0.916218
0.908787
0.901526
0.894773
0.888865
0.884071
0.880527
0.878238
0.877132
0.684037
0.686735
0.691905
0.699197
0.708123
0.718196
0.728981
0.74007
0.751153
0.761924
0.772139
0.781592
0.79011
0.797602
0.804028
0.809387
0.813709
0.817056
0.819468
0.821001
0.821687
0.821556
0.820598
0.818797
0.816115
0.812516
0.807976
0.8025
0.796126
0.78893
0.781048
0.772659
0.764036
0.755551
0.747658
0.740814
0.735352
0.731411
0.728923
0.727733
0.537613
0.540937
0.547374
0.556431
0.567282
0.579299
0.591937
0.604763
0.617406
0.629562
0.640967
0.651395
0.660655
0.668672
0.67543
0.680958
0.685337
0.688657
0.691002
0.692455
0.693081
0.692904
0.691918
0.690072
0.68729
0.683489
0.678611
0.672626
0.665546
0.657429
0.648388
0.638638
0.628478
0.618396
0.609026
0.601027
0.594802
0.59046
0.587811
0.586563
0.397147
0.401293
0.409553
0.421223
0.43465
0.449128
0.464076
0.478991
0.493476
0.507262
0.520065
0.531615
0.541704
0.550276
0.557343
0.562989
0.567343
0.570555
0.572758
0.574083
0.574631
0.574442
0.573494
0.571689
0.568886
0.564939
0.559735
0.553208
0.545336
0.536145
0.525716
0.514225
0.502073
0.489873
0.478545
0.469142
0.462129
0.457445
0.454748
0.453477
0.26188
0.266961
0.27786
0.293727
0.310475
0.327957
0.3457
0.363057
0.379623
0.39526
0.409674
0.422483
0.433467
0.442582
0.449891
0.455546
0.459747
0.462724
0.464673
0.465802
0.466256
0.466109
0.465311
0.463695
0.461013
0.457012
0.451536
0.444456
0.435717
0.425299
0.413228
0.399602
0.384744
0.369633
0.355518
0.34443
0.336721
0.331894
0.329334
0.328126
0.131011
0.136352
0.150621
0.174215
0.195367
0.216272
0.237354
0.257498
0.276207
0.29387
0.310105
0.324292
0.336162
0.345731
0.353142
0.35863
0.362494
0.365042
0.366609
0.367452
0.367788
0.36775
0.36727
0.366095
0.363764
0.359865
0.354191
0.346582
0.336927
0.32514
0.311169
0.294943
0.276528
0.257199
0.238485
0.225505
0.21752
0.212899
0.210722
0.209545
0.00409424
0.00581975
0.0177613
0.0607225
0.0902364
0.114345
0.139746
0.163009
0.183656
0.203464
0.221775
0.237345
0.249925
0.259727
0.266987
0.272055
0.275333
0.277193
0.278292
0.278755
0.27889
0.279011
0.279098
0.278727
0.277101
0.27357
0.267832
0.259709
0.249051
0.235818
0.219715
0.200519
0.177451
0.152621
0.124318
0.110192
0.103317
0.0995913
0.0980928
0.0968477
0
0
0
-0.0294082
-0.00288833
0.0191356
0.0527865
0.079656
0.102099
0.124409
0.145171
0.161806
0.174574
0.184213
0.190946
0.195302
0.197579
0.198481
0.199289
0.199274
0.198875
0.1991
0.200136
0.20109
0.20066
0.197944
0.192345
0.183789
0.171974
0.156751
0.138111
0.116319
0.0881599
0.0596077
0.00472243
-0.00385773
-0.00599255
-0.00818127
-0.00835202
-0.0109657
0
0
0
0
0
0
-0.0125675
0.0085976
0.0279282
0.057286
0.0807148
0.0973534
0.109374
0.11843
0.124072
0.127477
0.128236
0.127539
0.129209
0.128657
0.126255
0.126435
0.129036
0.132249
0.133686
0.132258
0.127246
0.11844
0.105229
0.0871917
0.0624197
0.0371879
0.00746862
0.00229551
0
0
0
0
0
0
0
0
0
0
0
0
0
0
0
0.00334599
0.0269184
0.043722
0.0540162
0.0623736
0.0654638
0.0679566
0.0669064
0.0612471
0.0684916
0.0680303
0.0576106
0.0579042
0.0642438
0.0715104
0.0755321
0.0756131
0.0718115
0.0633536
0.0487276
0.0281135
-0.00893365
0
0
0
0
0
0
0
0
0
0
0
0
0
0
0
0
0
0
0
0
0.00794676
0.0107531
0.0189314
0.0154711
0.0202956
0.0177518
-0.0108299
0.0179658
0.0204663
-0.0177173
-0.0116131
0.00527119
0.0195805
0.027453
0.0286492
0.0253099
0.0196855
0.00287818
0
0
0
0
0
0
0
0
0
0
0
0
0
0
0
0
0
0
0
0
0
0
0
0
0
-0.0190856
-0.00382068
0.00521009
0
0
0
0
0
0
-0.0190032
-0.00560358
-0.00408261
-0.000255997
0.00397372
0
0
0
0
0
0
0
0
0
0
0
0
0
0
0
0
0
0
0
0
0
0
0
0
0
0
0
0
0
0
0
0
0
0
0
0
0
0
0
0
0
0
0
0
0
0
0
0
0
0
0
0
0
0
0
0
0
0
0
0
0
0
0
0
0
0
0
0
0
0
0
0
0
0
0
0
0
0
0
0
0
0
0
0
0
0
0
0
0
0
0
0
0
0
0
0
0
0
0
0
0
0
0
0
0
0
0
0
0
0
0
0
0
0
0
0
0
0
0
0
0
0
0
0
0
0
0
0
0
0
0
0
0
0
0
0
0
0
0
0
0
0
0
0
0
0
0
0
0
0
0
0
0
0
0
0
0
0
0
0
0
0
0
0
0
0
0
0
0
0
0
0
0
0
0
0
0
0
0
0
0
0
0
0
0
0
0
0
0
0
0
0
0
0
0
0
0
0
0
0
0
0
0
0
0
0
0
0
0
0
0
0
0
0
0
0
0
0
0
0
0
0
0
0
0
0
0
0
0
0
0
0
0
0
0
0
0
0
0
0
0
0
0
0
0
0
0
0
0
0
0
0
0
0
0
0
0
0
0
0
0
0
0
0
0
0
0
0
0
0
0
0
0
0
0
0
0
0
0
0
0
0
0
0
0
0
0
0
0
0
0
0
0
0
0
0
0
0
0
0
0
0
0
0
0
0
0
0
0
0
0
0
0
0
0
0
0
0
0
0
0
0
0
0
0
0
0
0
0
0
0
0
0
0
0
0
0
0
0
0
0
0
0
0
0
0
0
0
0
0
0
0
0
0
0
0
0
0
0
0
0
0
0
0
0
0
0
0
0
0
0
0
0
0
0
0
0
0
0
0
0
0
0
0
0
0
0
0
0
0
0
0
0
0
0
0
0
0
0
0
0
0
0
0
0
0
0
0
0
0
0
0
0
0
0
0
0
0
0
0
0
0
0
0
0
0
0
0
0
0
0
0
0
0
0
0
0
0
0
0
0
0
0
0
0
0
0
0
0
0
0
0
0
0
0
0
0
0
0
0
0
0
0
0
0
0
0
0
0
0
0
0
0
0
0
0
0
0
0
0
0
0
0
0
0
0
0
0
0
0
0
0
0
0
0
0
0
0
0
0
0
0
0
0
0
0
0
0
0
0
0
0
0
0
0
0
0
0
0
0
0
0
0
0
0
0
0
0
0
0
0
0
SCALARS rhs double 1
LOOKUP_TABLE default
-4.6523
-4.70221
-4.70298
-4.70311
-4.70301
-4.70274
-4.70235
-4.70193
-4.7014
-4.70083
-4.70021
-4.69959
-4.69897
-4.6983
-4.69768
-4.69719
-4.69683
-4.69662
-4.69657
-4.69666
-4.69688
-4.69721
-4.69765
-4.69818
-4.6988
-4.69951
-4.70029
-4.70114
-4.70203
-4.70296
-4.70391
-4.70486
-4.70571
-4.70637
-4.70677
-4.70702
-4.70744
-4.70824
-4.70939
-4.7107
0.295457
0.248424
0.248341
0.248627
0.248946
0.249235
0.249437
0.249598
0.249736
0.249823
0.249937
0.250069
0.250145
0.250403
0.250599
0.250753
0.250842
0.250863
0.250808
0.250701
0.250565
0.250413
0.25025
0.250069
0.249868
0.249647
0.249407
0.249156
0.248876
0.248575
0.248253
0.247937
0.247695
0.247619
0.247758
0.24798
0.247906
0.247304
0.246177
0.244851
0.290884
0.246412
0.246408
0.246756
0.247113
0.247443
0.247692
0.247908
0.24803
0.248165
0.248268
0.248437
0.248461
0.248789
0.24898
0.249145
0.249249
0.249285
0.24923
0.249137
0.249019
0.248884
0.248738
0.248574
0.248383
0.248165
0.24792
0.247651
0.247369
0.247042
0.246694
0.246374
0.246167
0.246184
0.24647
0.246856
0.246852
0.246311
0.245183
0.243895
0.285649
0.244354
0.244452
0.244892
0.245309
0.245708
0.246059
0.24628
0.246459
0.246603
0.246753
0.246904
0.246923
0.247316
0.247527
0.247706
0.247833
0.247887
0.247828
0.247763
0.24767
0.247566
0.247448
0.247306
0.247125
0.246903
0.246648
0.246337
0.245986
0.245622
0.245291
0.244955
0.244774
0.244949
0.245489
0.246171
0.246282
0.245818
0.244648
0.24337
0.279419
0.241865
0.242146
0.242718
0.243243
0.243779
0.244193
0.244465
0.244685
0.244852
0.245032
0.245147
0.245194
0.245653
0.245891
0.246101
0.246258
0.246328
0.246264
0.246238
0.246186
0.246137
0.246071
0.245962
0.245791
0.245567
0.245277
0.244948
0.244468
0.243987
0.243527
0.243237
0.243326
0.243674
0.244567
0.245783
0.246039
0.245633
0.244303
0.242925
0.272208
0.238959
0.239549
0.240345
0.241042
0.241716
0.24218
0.242515
0.242739
0.242933
0.24309
0.243143
0.24323
0.243778
0.24406
0.244318
0.244514
0.244574
0.244553
0.244551
0.244569
0.244612
0.244633
0.244572
0.244403
0.244142
0.243784
0.243344
0.242909
0.242076
0.241474
0.241135
0.241383
0.242462
0.244106
0.245768
0.246242
0.245513
0.243864
0.242268
0.264297
0.236034
0.237142
0.238228
0.239104
0.239795
0.240276
0.240612
0.240793
0.240906
0.240984
0.240819
0.241035
0.24164
0.241989
0.242323
0.242582
0.242639
0.242653
0.242711
0.242844
0.243035
0.243179
0.243175
0.242984
0.242645
0.242175
0.241575
0.240844
0.240247
0.238802
0.238317
0.238791
0.240594
0.243456
0.246222
0.247306
0.245442
0.24259
0.240523
0.25672
0.234505
0.236455
0.237498
0.238361
0.238707
0.239051
0.239264
0.23921
0.239014
0.238826
0.238087
0.2386
0.239114
0.239535
0.239979
0.240352
0.240381
0.240534
0.240736
0.24106
0.241448
0.24172
0.241764
0.241496
0.241037
0.240413
0.239567
0.23847
0.237194
0.236432
0.234147
0.234697
0.237335
0.241538
0.245393
0.247316
0.244148
0.239633
0.236822
0.251182
0.236495
0.239802
0.238656
0.24045
0.239822
0.239622
0.239446
0.238738
0.237772
0.236644
0.235044
0.235652
0.235787
0.236209
0.236788
0.237389
0.237432
0.237982
0.238566
0.239199
0.239749
0.240015
0.24004
0.239717
0.238964
0.238273
0.237127
0.235486
0.233329
0.231065
0.230846
0.228024
0.230894
0.236351
0.240819
0.241616
0.23804
0.228696
0.226991
0.247006
0.237319
0.234923
0.222042
0.246122
0.244975
0.243347
0.242105
0.240722
0.238107
0.23419
0.232058
0.23095
0.230458
0.230665
0.231416
0.232539
0.232539
0.23439
0.235867
0.2369
0.237324
0.237143
0.237111
0.236309
0.236044
0.234378
0.233169
0.23109
0.227672
0.223306
0.219347
0.222183
0.220415
0.225595
0.229175