# vtk DataFile Version 4.0
Nusif Fluid VTK output
ASCII
DATASET STRUCTURED_POINTS
DIMENSIONS 40 30 1
ORIGIN 0 0 0 
SPACING 0.2 0.2 1
POINT_DATA 1200 

VECTORS velocity double
-0.00398155 0.00323782  0
-0.0118626 0.00321435  0
-0.0196068 0.00316098  0
-0.027204 0.00306988  0
-0.0345675 0.00292941  0
-0.0415837 0.00272445  0
-0.0481059 0.002437  0
-0.0539494 0.0020473  0
-0.0588898 0.0015352  0
-0.0626646 0.000882731  0
-0.0649807 7.7589e-05  0
-0.0655302 -0.000882924  0
-0.0640142 -0.00198699  0
-0.0601758 -0.00320443  0
-0.0538389 -0.00448466  0
-0.0449481 -0.0057575  0
-0.0336026 -0.00693841  0
-0.020076 -0.00793779  0
-0.00481359 -0.00867331  0
0.011592 -0.00908  0
0.0284501 -0.00912482  0
0.0450364 -0.00880729  0
0.0606616 -0.00816257  0
0.0747363 -0.00725583  0
0.0868216 -0.00617214  0
0.0966564 -0.00500426  0
0.10416 -0.00384027  0
0.109414 -0.00275319  0
0.112624 -0.00179579  0
0.114082 -0.000999824  0
0.114124 -0.000378459  0
0.113097 6.85169e-05  0
0.111345 0.000348327  0
0.10919 0.000470896  0
0.106924 0.00046062  0
0.104673 0.000456444  0
0.101733 0.00114923  0
0.0944336 0.00481677  0
0.0733124 0.0149709  0
0.0288374 0.0281706  0
-0.00400536 0.00979762  0
-0.01194 0.00972991  0
-0.0197517 0.0095766  0
-0.0274361 0.00931402  0
-0.0349136 0.00890682  0
-0.0420768 0.00830908  0
-0.0487836 0.00746597  0
-0.0548519 0.00631639  0
-0.0600551 0.00479749  0
-0.064123 0.00285211  0
-0.0667474 0.00043886  0
-0.0675959 -0.00245475  0
-0.0663371 -0.00579755  0
-0.0626748 -0.00950104  0
-0.0563929 -0.0134123  0
-0.0474025 -0.0173155  0
-0.0357835 -0.0209482  0
-0.0218108 -0.0240295  0
-0.00595608 -0.0262998  0
0.0111399 -0.0275549  0
0.0287231 -0.0276898  0
0.0459996 -0.0267025  0
0.0622145 -0.0247035  0
0.0767282 -0.0218981  0
0.0890741 -0.0185545  0
0.0989889 -0.0149636  0
0.106412 -0.0113989  0
0.111459 -0.0080851  0
0.114378 -0.00518188  0
0.1155 -0.00278128  0
0.115193 -0.000917418  0
0.113824 0.000416623  0
0.111742 0.00124964  0
0.109262 0.0016201  0
0.106642 0.00161361  0
0.10395 0.00166372  0
0.100405 0.00384295  0
0.0923753 0.0148701  0
0.0709536 0.0448779  0
0.0276964 0.0834131  0
-0.00405011 0.0164903  0
-0.0120849 0.0163891  0
-0.0200235 0.0161587  0
-0.0278745 0.0157589  0
-0.0355731 0.01513  0
-0.0430251 0.0141936  0
-0.0500992 0.0128554  0
-0.0566187 0.0110081  0
-0.0623552 0.00853915  0
-0.0670245 0.00534175  0
-0.070289 0.00133234  0
-0.071768 -0.003526  0
-0.0710619 -0.00919627  0
-0.0677918 -0.0155393  0
-0.0616545 -0.0222975  0
-0.0524849 -0.0290942  0
-0.0403172 -0.0354598  0
-0.0254267 -0.0408841  0
-0.00833942 -0.0448899  0
0.0102006 -0.047103  0
0.029303 -0.0473291  0
0.0480238 -0.0455615  0
0.065467 -0.0420032  0
0.0808859 -0.0370311  0
0.0937562 -0.0311372  0
0.103812 -0.0248505  0
0.111039 -0.0186606  0
0.115631 -0.012961  0
0.117929 -0.00802017  0
0.118347 -0.00398103  0
0.117322 -0.000881725  0
0.115263 0.00131167  0
0.112533 0.00267005  0
0.109435 0.00328186  0
0.106191 0.00331971  0
0.102807 0.00353771  0
0.0984649 0.00735924  0
0.0896965 0.0256562  0
0.0682566 0.0744573  0
0.0264949 0.136356  0
-0.00410779 0.0232939  0
-0.0122733 0.0231795  0
-0.0203826 0.0229125  0
-0.028465 0.0224355  0
-0.0364788 0.0216632  0
-0.0443515 0.0204829  0
-0.0519695 0.0187565  0
-0.0591685 0.016324  0
-0.0657218 0.0130117  0
-0.0713301 0.00864584  0
-0.0756153 0.00307708  0
-0.0781241 -0.00378351  0
-0.0783497 -0.0119196  0
-0.0757758 -0.0211599  0
-0.0699479 -0.0311418  0
-0.0605648 -0.0413019  0
-0.0475732 -0.0509105  0
-0.0312395 -0.059156  0
-0.0121755 -0.0652674  0
0.00869926 -0.0686379  0
0.0302651 -0.0689595  0
0.0513252 -0.0662087  0
0.0707437 -0.060714  0
0.0875926 -0.0530837  0
0.101253 -0.0441107  0
0.111465 -0.0346384  0
0.118301 -0.02543  0
0.122099 -0.0170758  0
0.123358 -0.00995434  0
0.122638 -0.00423857  0
0.120485 6.24027e-05  0
0.117373 0.00304618  0
0.113688 0.00485861  0
0.109723 0.00566447  0
0.105667 0.00574483  0
0.10149 0.0061818  0
0.0963813 0.0116746  0
0.0870763 0.0369227  0
0.0658574 0.103358  0
0.0254889 0.187094  0
-0.00416613 0.0302234  0
-0.0124686 0.0301247  0
-0.0207683 0.0298787  0
-0.029124 0.0294103  0
-0.0375259 0.0286073  0
-0.045932 0.027321  0
-0.054258 0.025366  0
-0.0623632 0.0225225  0
-0.0700333 0.0185405  0
-0.0769592 0.0131554  0
-0.0827186 0.00611642  0
-0.0867648 -0.00276327  0
-0.0884383 -0.013536  0
-0.0870142 -0.0260365  0
-0.0817965 -0.0398054  0
-0.0722537 -0.0540585  0
-0.0581714 -0.0677221  0
-0.0397831 -0.0795602  0
-0.017826 -0.0883776  0
0.00650731 -0.0932286  0
0.031736 -0.0936556  0
0.0562678 -0.0895964  0
0.0785901 -0.0815584  0
0.0974882 -0.0704771  0
0.112201 -0.0575815  0
0.122493 -0.0441605  0
0.128602 -0.0313426  0
0.131107 -0.0199556  0
0.130766 -0.0104801  0
0.128364 -0.00307904  0
0.124606 0.00232655  0
0.120056 0.00595742  0
0.115119 0.00808144  0
0.110073 0.0089657  0
0.10508 0.00900562  0
0.100094 0.00959707  0
0.0943415 0.0166337  0
0.0847307 0.0483925  0
0.0638779 0.131473  0
0.0246996 0.236039  0
-0.00420836 0.0372643  0
-0.0126206 0.0372192  0
-0.0210978 0.0370699  0
-0.0297365 0.0367226  0
-0.0385681 0.0360378  0
-0.0475925 0.0348305  0
-0.056768 0.0328674  0
-0.0659945 0.0298623  0
-0.0750894 0.0254753  0
-0.0837547 0.0193216  0
-0.0915347 0.0109994  0
-0.0977771 0.000152359  0
-0.101622 -0.0134229  0
-0.102044 -0.0296419  0
-0.0979692 -0.047982  0
-0.0884813 -0.0674019  0
-0.0730747 -0.0863565  0
-0.0518962 -0.102981  0
-0.025863 -0.115435  0
0.00342012 -0.122275  0
0.0339153 -0.12282  0
0.0634245 -0.11696  0
0.0898646 -0.105444  0
0.111572 -0.0896827  0
0.127573 -0.0715753  0
0.137706 -0.0530765  0
0.142507 -0.0358212  0
0.142962 -0.0209209  0
0.140234 -0.00892881  0
0.135444 7.86383e-05  0
0.12952 0.00636826  0
0.123123 0.0103813  0
0.116658 0.0125767  0
0.110349 0.0133443  0
0.10432 0.0131672  0
0.098549 0.0137108  0
0.0923331 0.0220062  0
0.0826846 0.0597974  0
0.0623198 0.158804  0
0.0241135 0.283611  0
-0.00421298 0.0443639  0
-0.0126653 0.0444201  0
-0.0212657 0.0444621  0
-0.0301565 0.0443755  0
-0.0394182 0.0439937  0
-0.0491027 0.0430991  0
-0.0592268 0.0414139  0
-0.0697558 0.0385868  0
-0.0805743 0.0341797  0
-0.0914358 0.0276595  0
-0.101888 0.0184095  0
-0.111187 0.00579863  0
-0.118229 -0.0106662  0
-0.121569 -0.0311209  0
-0.119556 -0.0550753  0
-0.110628 -0.0812079  0
-0.0937516 -0.107318  0
-0.068867 -0.130566  0
-0.0371615 -0.148072  0
-0.000878273 -0.157688  0
0.0370944 -0.158358  0
0.0736541 -0.149973  0
0.105873 -0.13357  0
0.13136 -0.111231  0
0.148809 -0.0859565  0
0.158247 -0.0607456  0
0.160756 -0.0379421  0
0.157998 -0.0189744  0
0.151765 -0.00439197  0
0.143662 0.00595679  0
0.13491 0.0126893  0
0.126261 0.0166288  0
0.118042 0.0185366  0
0.110323 0.0189363  0
0.103152 0.0182989  0
0.0965796 0.018446  0
0.0900708 0.0275191  0
0.0807032 0.0708239  0
0.061024 0.185344  0
0.0236689 0.330155  0
-0.00415385 0.0514217  0
-0.012525 0.051638  0
-0.0211438 0.0519859  0
-0.0302056 0.0523266  0
-0.0398448 0.0524656  0
-0.0501726 0.0521615  0
-0.0612805 0.0511052  0
-0.0732289 0.0488944  0
-0.0860171 0.0450003  0
-0.0995245 0.0387291  0
-0.113393 0.0291823  0
-0.12685 0.0153029  0
-0.138538 -0.00391939  0
-0.146449 -0.0290946  0
-0.148056 -0.0599873  0
-0.140724 -0.0950337  0
-0.122435 -0.131135  0
-0.0926593 -0.163887  0
-0.0530186 -0.188575  0
-0.00686624 -0.202098  0
0.0416734 -0.202937  0
0.0882409 -0.190997  0
0.128624 -0.167624  0
0.159192 -0.135709  0
0.178059 -0.10027  0
0.185721 -0.0660056  0
0.18428 -0.0362245  0
0.176515 -0.0126413  0
0.16517 0.00438049  0
0.152532 0.0154532  0
0.140201 0.021805  0
0.128978 0.0249131  0
0.118935 0.0260433  0
0.109745 0.025867  0
0.10124 0.024574  0
0.0936466 0.0238655  0
0.0868185 0.0329652  0
0.0780188 0.0810737  0
0.0594204 0.2109  0
0.0231573 0.375745  0
-0.00399865 0.0582787  0
-0.0121041 0.0587269  0
-0.0205783 0.0595196  0
-0.0296769 0.0604824  0
-0.039583 0.0613838  0
-0.0504627 0.0619791  0
-0.0624938 0.0619546  0
-0.0758609 0.0608883  0
-0.0907384 0.0581996  0
-0.107251 0.0530766  0
-0.125312 0.0442917  0
-0.144289 0.0301555  0
-0.162632 0.00878542  0
-0.177635 -0.0213583  0
-0.185487 -0.0607383  0
-0.181778 -0.107796  0
-0.162616 -0.158296  0
-0.126333 -0.20526  0
-0.0754067 -0.240241  0
-0.0152419 -0.25922  0
0.0482734 -0.260341  0
0.109097 -0.243456  0
0.161256 -0.210177  0
0.198761 -0.163698  0
0.218543 -0.1134  0
0.222312 -0.066775  0
0.214133 -0.0283032  0
0.198619 0.000249152  0
0.179885 0.0191019  0
0.161121 0.0296679  0
0.144417 0.0341597  0
0.130561 0.0351712  0
0.119037 0.0348871  0
0.108542 0.034242  0
0.0983277 0.0324531  0
0.0889748 0.0304673  0
0.0811847 0.0385158  0
0.0729005 0.090141  0
0.0561069 0.234759  0
0.0220606 0.41973  0
-0.00370736 0.0647033  0
-0.0112862 0.0654737  0
-0.0193883 0.0668861  0
-0.0283405 0.068703  0
-0.0383466 0.070611  0
-0.0496002 0.07242  0
-0.0623691 0.073848  0
-0.0769796 0.0745065  0
-0.0938233 0.0738361  0
-0.113428 0.07109  0
-0.136312 0.0647568  0
-0.162355 0.0522442  0
-0.19005 0.0302669  0
-0.215942 -0.00441216  0
-0.234465 -0.0537767  0
-0.238297 -0.117102  0
-0.219861 -0.189055  0
-0.17453 -0.258581  0
-0.106942 -0.307901  0
-0.0268752 -0.334258  0
0.0576764 -0.335836  0
0.138801 -0.312374  0
0.208621 -0.265703  0
0.256047 -0.195568  0
0.275109 -0.122838  0
0.270896 -0.0593553  0
0.25137 -0.0104804  0
0.224018 0.0228307  0
0.194715 0.0420962  0
0.167757 0.0499347  0
0.145933 0.0499613  0
0.130019 0.0466791  0
0.118386 0.0440769  0
0.107365 0.044108  0
0.0946577 0.0430495  0
0.0817089 0.0397125  0
0.0708761 0.0454332  0
0.0619309 0.0979924  0
0.0481243 0.255047  0
0.0192959 0.459856  0
-0.00322917 0.070373  0
-0.00992136 0.0715805  0
-0.0173461 0.0738504  0
-0.0259469 0.0768349  0
-0.0358592 0.0799397  0
-0.0472172 0.083244  0
-0.0603964 0.0865124  0
-0.0758601 0.0894563  0
-0.0941434 0.0915529  0
-0.116322 0.0926953  0
-0.144154 0.0914068  0
-0.178782 0.0838044  0
-0.219311 0.0644688  0
-0.261759 0.0272645  0
-0.298292 -0.0328593  0
-0.316944 -0.117996  0
-0.30261 -0.223393  0
-0.242956 -0.33169  0
-0.149411 -0.398388  0
-0.0421528 -0.433557  0
0.0701706 -0.435873  0
0.179099 -0.40485  0
0.276598 -0.343005  0
0.33986 -0.231413  0
0.354751 -0.123405  0
0.335078 -0.0373593  0
0.296755 0.0229156  0
0.251648 0.0594377  0
0.207523 0.0764611  0
0.169677 0.0779193  0
0.142098 0.068926  0
0.125969 0.0573031  0
0.118078 0.0505229  0
0.108625 0.0556818  0
0.0912152 0.0591393  0
0.0704719 0.0548604  0
0.0516805 0.0574546  0
0.0381841 0.105957  0
0.0295472 0.267069  0
0.0129145 0.490838  0
-0.00249987 0.0748501  0
-0.00780681 0.0766267  0
-0.0141283 0.0801021  0
-0.0222429 0.0848489  0
-0.0319284 0.089072  0
-0.0430201 0.0941083  0
-0.0561576 0.0995108  0
-0.071963 0.105273  0
-0.0906568 0.110259  0
-0.113723 0.116779  0
-0.145453 0.124429  0
-0.189687 0.127189  0
-0.24722 0.11669  0
-0.314213 0.0820291  0
-0.380318 0.0125574  0
-0.425739 -0.101796  0
-0.418591 -0.263531  0
-0.332006 -0.440246  0
-0.198408 -0.519432  0
-0.0590952 -0.561539  0
0.083272 -0.565036  0
0.225074 -0.528871  0
0.363912 -0.457774  0
0.4556 -0.274049  0
0.464227 -0.10674  0
0.418028 0.00939612  0
0.349997 0.0800627  0
0.279422 0.115522  0
0.215238 0.126236  0
0.162739 0.116041  0
0.128668 0.0900055  0
0.116134 0.0624395  0
0.121127 0.0458358  0
0.116166 0.0723348  0
0.0857556 0.0878584  0
0.048959 0.0812322  0
0.0141228 0.0822611  0
-0.0123773 0.118697  0
-0.0105303 0.258668  0
0.00018154 0.502708  0
-0.00147044 0.0775837  0
-0.00472267 0.0799956  0
-0.00921566 0.0851072  0
-0.0171361 0.0934369  0
-0.0269082 0.0974964  0
-0.037367 0.104786  0
-0.0502283 0.112383  0
-0.0667226 0.122252  0
-0.0852567 0.128059  0
-0.106072 0.140412  0
-0.138889 0.162894  0
-0.192848 0.184468  0
-0.27208 0.193725  0
-0.373815 0.171272  0
-0.484088 0.0972419  0
-0.566128 -0.0614708  0
-0.554518 -0.325066  0
-0.420091 -0.602174  0
-0.23935 -0.674295  0
-0.0730798 -0.714711  0
0.0902163 -0.719979  0
0.258994 -0.686958  0
0.439826 -0.621806  0
0.576858 -0.341185  0
0.596218 -0.0700393  0
0.519724 0.0929398  0
0.410521 0.171305  0
0.306419 0.19651  0
0.216554 0.196852  0
0.142652 0.169383  0
0.0997908 0.111154  0
0.0951599 0.0560147  0
0.124546 0.0154384  0
0.117856 0.11194  0
0.0549785 0.139099  0
-0.000922399 0.120246  0
-0.0524312 0.127148  0
-0.099854 0.145288  0
-0.0802381 0.208168  0
-0.0209276 0.480738  0
-0.000356542 0.0787961  0
-0.00111255 0.0815678  0
-0.00230568 0.0880029  0
-0.0157649 0.110702  0
-0.0337968 0.106203  0
-0.0486185 0.118915  0
-0.0666529 0.126706  0
-0.0917203 0.147048  0
-0.118317 0.145951  0
-0.137703 0.160278  0
-0.168847 0.204546  0
-0.229809 0.255294  0
-0.330188 0.300065  0
-0.464727 0.298758  0
-0.609753 0.222609  0
-0.701092 -0.0159038  0
-0.640987 -0.444793  0
-0.455167 -0.805141  0
-0.256769 -0.852915  0
-0.0822559 -0.879323  0
0.0829268 -0.886293  0
0.255099 -0.864039  0
0.43357 -0.806472  0
0.606316 -0.468738  0
0.688427 -0.0464004  0
0.62491 0.206867  0
0.488675 0.300371  0
0.356556 0.301223  0
0.240622 0.295498  0
0.125675 0.257758  0
0.0606643 0.129433  0
0.054337 0.0474745  0
0.0488071 -0.00109742  0
0.0272883 0.155464  0
-0.000120037 0.184641  0
-0.0350415 0.164306  0
-0.092264 0.190599  0
-0.185157 0.220932  0
-0.161092 0.0870081  0
-0.0397697 0.418817  0
-0.00176382 0.0395763  0
-0.00593448 0.0409836  0
-0.0230057 0.0443983  0
-0.252029 0.117162  0
-0.466388 0.110957  0
-0.472433 0.133806  0
-0.485222 0.141417  0
-0.501067 0.172028  0
-0.520577 0.165858  0
-0.541777 0.179737  0
-0.566381 0.239615  0
-0.614049 0.327633  0
-0.692828 0.405051  0
-0.749334 0.382372  0
-0.755779 0.288024  0
-0.701018 -0.0465712  0
-0.55387 -0.623212  0
-0.384314 -0.984544  0
-0.236316 -1.02235  0
-0.0888742 -1.03428  0
0.0514649 -1.0393  0
0.185282 -1.01946  0
0.289215 -0.93528  0
0.417363 -0.642043  0
0.600452 -0.139515  0
0.718216 0.243902  0
0.724136 0.391209  0
0.667519 0.397291  0
0.628828 0.352837  0
0.437408 0.333797  0
0.195148 0.0687225  0
0.120001 0.0228949  0
-0.0131822 0.00305861  0
-0.0685254 0.0848842  0
-0.00829768 0.0988724  0
-0.0491713 0.0930618  0
-0.138412 0.113002  0
-0.21552 0.12685  0
-0.168605 -0.0775069  0
-0.0431274 0.334696  0
0 0  0
0 0  0
0 0  0
-0.233194 0.0554785  0
-0.480835 0.0554785  0
-0.491035 0.0699258  0
-0.505861 0.0740802  0
-0.51512 0.0905647  0
-0.525277 0.0881333  0
-0.580358 0.0952638  0
-0.651861 0.126714  0
-0.602841 0.405426  0
-0.517428 0.449365  0
-0.520973 0.396887  0
-0.524519 0.282278  0
-0.354949 -0.408772  0
-0.185379 -0.721348  0
-0.188389 -1.05418  0
-0.163846 -1.12648  0
-0.0916342 -1.15103  0
-0.0142282 -1.14152  0
0.0185191 -1.08503  0
0.0518332 -1.02964  0
0.0469509 -0.365606  0
0.180423 -0.00699472  0
0.352092 0.219445  0
0.352092 0.408524  0
0.532032 0.422253  0
0.6704 0.176418  0
0.314414 0.176418  0
0 0  0
0 0  0
0 0  0
0 0  0
0 0  0
0 0  0
0 0  0
-0.0579092 -0.0922888  0
-0.115818 -0.159857  0
-0.0579092 0.232434  0
0 0  0
0 0  0
0 0  0
0 0  0
0 0  0
0 0  0
0 0  0
0 0  0
0 0  0
0 0  0
0 0  0
-0.258714 0.224682  0
-0.492962 0.224682  0
-0.43743 0.200216  0
-0.465442 0.141139  0
-0.354949 -0.360674  0
-0.020469 -0.360674  0
0.0279548 -0.525584  0
-0.091585 -0.577017  0
-0.0815198 -0.597844  0
-0.0695584 -0.587132  0
-0.0260985 -0.542514  0
0.00925955 -0.542514  0
0 0  0
0.176046 0.109722  0
0.257552 0.109722  0
0.257552 0.204262  0
0.176046 0.204262  0
0 0  0
0 0  0
0 0  0
0 0  0
0 0  0
0 0  0
0 0  0
0 0  0
0 0  0
-0.0579092 -0.0799286  0
-0.0579092 0.00702779  0
0 0.173913  0
0 0  0
0 0  0
0 0  0
0 0  0
0 0  0
0 0  0
0 0  0
0 0  0
0 0  0
0 0  0
0 0  0
0 0  0
0 0  0
0 0  0
0 0  0
0 0  0
0 0  0
0 0  0
0 0  0
0 0  0
0 0  0
0 0  0
0 0  0
0 0  0
0 0  0
0 0  0
0 0  0
0 0  0
0 0  0
0 0  0
0 0  0
0 0  0
0 0  0
0 0  0
0 0  0
0 0  0
0 0  0
0 0  0
0 0.0869564  0
0 0.0869564  0
0 0  0
0 0  0
0 0  0
0 0  0
0 0  0
0 0  0
0 0  0
0 0  0
0 0  0
0 0  0
0 0  0
0 0  0
0 0  0
0 0  0
0 0  0
0 0  0
0 0  0
0 0  0
0 0  0
0 0  0
0 0  0
0 0  0
0 0  0
0 0  0
0 0  0
0 0  0
0 0  0
0 0  0
0 0  0
0 0  0
0 0  0
0 0  0
0 0  0
0 0  0
0 0  0
0 0  0
0 0  0
0 0  0
0 0  0
0 0  0
0 0  0
0 0  0
0 0  0
0 0  0
0 0  0
0 0  0
0 0  0
0 0  0
0 0  0
0 0  0
0 0  0
0 0  0
0 0  0
0 0  0
0 0  0
0 0  0
0 0  0
0 0  0
0 0  0
0 0  0
0 0  0
0 0  0
0 0  0
0 0  0
0 0  0
0 0  0
0 0  0
0 0  0
0 0  0
0 0  0
0 0  0
0 0  0
0 0  0
0 0  0
0 0  0
0 0  0
0 0  0
0 0  0
0 0  0
0 0  0
0 0  0
0 0  0
0 0  0
0 0  0
0 0  0
0 0  0
0 0  0
0 0  0
0 0  0
0 0  0
0 0  0
0 0  0
0 0  0
0 0  0
0 0  0
0 0  0
0 0  0
0 0  0
0 0  0
0 0  0
0 0  0
0 0  0
0 0  0
0 0  0
0 0  0
0 0  0
0 0  0
0 0  0
0 0  0
0 0  0
0 0  0
0 0  0
0 0  0
0 0  0
0 0  0
0 0  0
0 0  0
0 0  0
0 0  0
0 0  0
0 0  0
0 0  0
0 0  0
0 0  0
0 0  0
0 0  0
0 0  0
0 0  0
0 0  0
0 0  0
0 0  0
0 0  0
0 0  0
0 0  0
0 0  0
0 0  0
0 0  0
0 0  0
0 0  0
0 0  0
0 0  0
0 0  0
0 0  0
0 0  0
0 0  0
0 0  0
0 0  0
0 0  0
0 0  0
0 0  0
0 0  0
0 0  0
0 0  0
0 0  0
0 0  0
0 0  0
0 0  0
0 0  0
0 0  0
0 0  0
0 0  0
0 0  0
0 0  0
0 0  0
0 0  0
0 0  0
0 0  0
0 0  0
0 0  0
0 0  0
0 0  0
0 0  0
0 0  0
0 0  0
0 0  0
0 0  0
0 0  0
0 0  0
0 0  0
0 0  0
0 0  0
0 0  0
0 0  0
0 0  0
0 0  0
0 0  0
0 0  0
0 0  0
0 0  0
0 0  0
0 0  0
0 0  0
0 0  0
0 0  0
0 0  0
0 0  0
0 0  0
0 0  0
0 0  0
0 0  0
0 0  0
0 0  0
0 0  0
0 0  0
0 0  0
0 0  0
0 0  0
0 0  0
0 0  0
0 0  0
0 0  0
0 0  0
0 0  0
0 0  0
0 0  0
0 0  0
0 0  0
0 0  0
0 0  0
0 0  0
0 0  0
0 0  0
0 0  0
0 0  0
0 0  0
0 0  0
0 0  0
0 0  0
0 0  0
0 0  0
0 0  0
0 0  0
0 0  0
0 0  0
0 0  0
0 0  0
0 0  0
0 0  0
0 0  0
0 0  0
0 0  0
0 0  0
0 0  0
0 0  0
0 0  0
0 0  0
0 0  0
0 0  0
0 0  0
0 0  0
0 0  0
0 0  0
0 0  0
0 0  0
0 0  0
0 0  0
0 0  0
0 0  0
0 0  0
0 0  0
0 0  0
0 0  0
0 0  0
0 0  0
0 0  0
0 0  0
0 0  0
0 0  0
0 0  0
0 0  0
0 0  0
0 0  0
0 0  0
0 0  0
0 0  0
0 0  0
0 0  0
0 0  0
0 0  0
0 0  0
0 0  0
0 0  0
0 0  0
0 0  0
0 0  0
0 0  0
0 0  0
0 0  0
0 0  0
0 0  0
0 0  0
0 0  0
0 0  0
0 0  0
0 0  0
0 0  0
0 0  0
0 0  0
0 0  0
0 0  0
0 0  0
0 0  0
0 0  0
0 0  0
0 0  0
0 0  0
0 0  0
0 0  0
0 0  0
0 0  0
0 0  0
0 0  0
0 0  0
0 0  0
0 0  0
0 0  0
0 0  0
0 0  0
0 0  0
0 0  0
0 0  0
0 0  0
0 0  0
0 0  0
0 0  0
0 0  0
0 0  0
0 0  0
0 0  0
0 0  0
0 0  0
0 0  0
0 0  0
0 0  0
0 0  0
0 0  0
0 0  0
0 0  0
0 0  0
0 0  0
0 0  0
0 0  0
0 0  0
0 0  0
0 0  0
0 0  0
0 0  0
0 0  0
0 0  0
0 0  0
0 0  0
0 0  0
0 0  0
0 0  0
0 0  0
0 0  0
0 0  0
0 0  0
0 0  0
0 0  0
0 0  0
0 0  0
0 0  0
0 0  0
0 0  0
0 0  0
0 0  0
0 0  0
0 0  0
0 0  0
0 0  0
0 0  0
0 0  0
0 0  0
0 0  0
0 0  0
0 0  0
0 0  0
0 0  0
0 0  0
0 0  0
0 0  0
0 0  0
0 0  0
0 0  0
0 0  0
0 0  0
0 0  0
0 0  0
0 0  0
0 0  0
0 0  0
0 0  0
0 0  0
0 0  0
0 0  0
0 0  0
0 0  0
0 0  0
0 0  0
0 0  0
0 0  0
0 0  0
0 0  0
0 0  0
0 0  0
0 0  0
0 0  0
0 0  0
0 0  0
0 0  0
0 0  0
0 0  0
0 0  0
0 0  0
0 0  0
0 0  0
0 0  0
0 0  0
0 0  0
0 0  0
0 0  0
0 0  0
0 0  0
0 0  0
0 0  0
0 0  0
0 0  0
0 0  0
0 0  0
0 0  0
0 0  0
0 0  0
0 0  0
0 0  0
0 0  0
0 0  0
0 0  0
0 0  0
0 0  0
0 0  0
0 0  0
0 0  0
0 0  0
0 0  0
0 0  0
0 0  0
0 0  0
0 0  0
0 0  0
0 0  0
0 0  0
0 0  0
0 0  0
0 0  0
0 0  0
0 0  0
0 0  0
0 0  0
0 0  0
0 0  0
0 0  0
0 0  0
0 0  0
0 0  0
0 0  0
0 0  0
0 0  0
0 0  0
0 0  0
0 0  0
0 0  0
0 0  0
0 0  0
0 0  0
0 0  0
0 0  0
0 0  0
0 0  0
0 0  0

SCALARS pressure double 1
LOOKUP_TABLE default
2.63319
2.6354
2.63976
2.64618
2.65454
2.66469
2.67643
2.68954
2.70377
2.71884
2.73441
2.75012
2.76555
2.78023
2.79367
2.80537
2.81481
2.82156
2.82523
2.82569
2.82279
2.81656
2.80723
2.79516
2.78084
2.76484
2.74775
2.73017
2.71268
2.69577
2.67991
2.66548
2.65281
2.64215
2.63371
2.62767
2.62414
2.62323
2.62484
2.62768
2.43359
2.43585
2.44029
2.44683
2.45535
2.4657
2.47767
2.49105
2.50558
2.52099
2.53694
2.55306
2.56892
2.58404
2.59791
2.60999
2.61976
2.62675
2.63056
2.63105
2.62808
2.62167
2.61204
2.5996
2.58483
2.56834
2.55074
2.53266
2.51468
2.49733
2.48109
2.46634
2.4534
2.44254
2.43393
2.42775
2.4241
2.42309
2.42464
2.42747
2.23427
2.23662
2.24124
2.24803
2.25688
2.26762
2.28006
2.29397
2.30911
2.32519
2.3419
2.35885
2.37559
2.39161
2.40637
2.41926
2.42972
2.43722
2.44133
2.44188
2.43877
2.43198
2.42176
2.40854
2.39285
2.37535
2.3567
2.33759
2.31863
2.3004
2.28338
2.26799
2.25454
2.24326
2.23434
2.2279
2.22402
2.22279
2.22411
2.22673
2.03517
2.03765
2.04253
2.04971
2.05906
2.0704
2.08353
2.09823
2.11427
2.13136
2.14921
2.16742
2.18551
2.20293
2.21907
2.23323
2.24477
2.25308
2.25766
2.2583
2.25497
2.2476
2.23647
2.22204
2.20493
2.18586
2.16559
2.14488
2.12442
2.10484
2.08666
2.07032
2.05611
2.04425
2.03488
2.02809
2.02391
2.0224
2.02343
2.02579
1.83613
1.83879
1.84404
1.85176
1.86178
1.87392
1.88797
1.9037
1.92091
1.93934
1.9587
1.9786
1.99855
2.01792
2.03599
2.05195
2.06502
2.07446
2.07969
2.08046
2.07682
2.06865
2.05626
2.04016
2.02107
1.99983
1.97731
1.95439
1.93186
1.91044
1.89071
1.8731
1.85793
1.84535
1.83545
1.82826
1.82377
1.82197
1.82272
1.82485
1.63696
1.63987
1.6456
1.65401
1.6649
1.67805
1.69322
1.71021
1.72883
1.74888
1.77012
1.79216
1.81451
1.83644
1.85707
1.87545
1.89056
1.90151
1.90758
1.90846
1.90444
1.89524
1.8812
1.86292
1.84124
1.81715
1.79169
1.76588
1.74067
1.71688
1.69518
1.67604
1.65973
1.64636
1.63592
1.62834
1.62354
1.62149
1.62204
1.62401
1.43741
1.44064
1.44698
1.45628
1.46827
1.48265
1.49913
1.51755
1.53776
1.55967
1.58309
1.60771
1.63302
1.65819
1.68214
1.70366
1.72144
1.7343
1.7414
1.74234
1.7378
1.72733
1.71127
1.69027
1.66531
1.63762
1.60843
1.57899
1.5504
1.52369
1.49962
1.4787
1.46115
1.447
1.43609
1.42822
1.42321
1.42097
1.42139
1.42331
1.23717
1.24079
1.24791
1.25835
1.27173
1.28759
1.30556
1.32549
1.34736
1.37123
1.39709
1.42469
1.45351
1.48269
1.51082
1.53632
1.5575
1.57273
1.58091
1.58177
1.57649
1.56456
1.54615
1.52186
1.49292
1.46082
1.42708
1.39317
1.36047
1.33023
1.30336
1.28046
1.2617
1.24692
1.23578
1.22784
1.22275
1.22042
1.22085
1.22291
1.03584
1.03993
1.04804
1.05997
1.07517
1.09284
1.11243
1.13382
1.15722
1.18298
1.21134
1.24225
1.27512
1.30903
1.34227
1.37274
1.39814
1.41616
1.42526
1.4256
1.41928
1.40576
1.38483
1.35677
1.32315
1.28592
1.24685
1.20765
1.17011
1.13558
1.10546
1.08049
1.06073
1.04572
1.03478
1.02716
1.02228
1.02002
1.02072
1.02329
0.832942
0.837551
0.846854
0.860781
0.878583
0.898559
0.919824
0.942405
0.96688
0.994082
1.02475
1.05913
1.09658
1.13562
1.1748
1.21115
1.24165
1.26277
1.27207
1.27099
1.26314
1.248
1.22474
1.19261
1.15393
1.11125
1.0664
1.02154
0.978197
0.938402
0.904573
0.877678
0.857435
0.842904
0.832905
0.82626
0.822102
0.820292
0.821951
0.825889
0.627979
0.633005
0.643544
0.660187
0.682244
0.705355
0.72819
0.751263
0.775809
0.803439
0.835734
0.873489
0.915916
0.960341
1.0049
1.04723
1.0834
1.10779
1.11574
1.1119
1.10169
1.08466
1.05947
1.0233
0.980265
0.933402
0.88401
0.83351
0.783335
0.736642
0.698681
0.670478
0.650854
0.637949
0.629977
0.625249
0.622707
0.622403
0.627199
0.634311
0.420553
0.425485
0.436639
0.456638
0.487253
0.514755
0.538543
0.56073
0.583506
0.609554
0.641892
0.682517
0.73053
0.779638
0.825766
0.870464
0.91117
0.939466
0.945227
0.937778
0.923931
0.903042
0.873669
0.833649
0.790618
0.745939
0.697329
0.642038
0.583877
0.526496
0.484471
0.456854
0.439991
0.430299
0.425622
0.42389
0.424276
0.427913
0.442664
0.456073
0.210781
0.214301
0.223397
0.244916
0.297754
0.330162
0.352669
0.371614
0.389692
0.410479
0.439445
0.481347
0.53707
0.588549
0.627494
0.656376
0.697259
0.734284
0.744661
0.735925
0.717006
0.685881
0.638904
0.593308
0.561936
0.54162
0.503087
0.44532
0.37903
0.298986
0.255998
0.234031
0.22355
0.218566
0.218532
0.220567
0.225166
0.237857
0.276925
0.300636
0.000169691
0.00018788
0.000287093
0.00433087
0.13108
0.15781
0.17263
0.185362
0.195305
0.204869
0.22335
0.260549
0.332508
0.381181
0.393306
0.3647
0.405136
0.47161
0.5038
0.500445
0.476677
0.426157
0.334376
0.278536
0.271799
0.313378
0.298688
0.240312
0.17657
0.0269171
0.00345394
-0.00108294
0.00350695
0.00743466
0.00633921
0.0107562
0.0175049
0.0286871
0.138419
0.17619
0
0
0
0
0.0700005
0.00214686
0.00337431
0.00457193
0.00518573
0.00544545
0.00670582
0.015497
0.134601
0.162865
0.132428
-0.0253396
0.0585706
0.186473
0.237506
0.241136
0.219765
0.155611
-0.0212149
-0.0460201
-0.0466605
0.0911461
0.0911238
0.0182159
0.0455518
0
0
0
0
0
0
0
0
0
0.0410895
0.086247
0
0
0
0
0
0
0
0
0
0
0
0
0.0343872
0.00129811
0.01794
0
-0.136069
0.00151211
-0.014822
-0.0235864
-0.0174334
-0.0131673
0
0
0
0.0786265
-0.0262292
0
0
0
0
0
0
0
0
0
0
0
-0.0189523
0.0333884
0
0
0
0
0
0
0
0
0
0
0
0
0
0
0
0
0
0
0
0
0
0
0
0
0
0
0
0
0
0
0
0
0
0
0
0
0
0
0
0.0151032
0
0
0
0
0
0
0
0
0
0
0
0
0
0
0
0
0
0
0
0
0
0
0
0
0
0
0
0
0
0
0
0
0
0
0
0
0
0
0
0
0
0
0
0
0
0
0
0
0
0
0
0
0
0
0
0
0
0
0
0
0
0
0
0
0
0
0
0
0
0
0
0
0
0
0
0
0
0
0
0
0
0
0
0
0
0
0
0
0
0
0
0
0
0
0
0
0
0
0
0
0
0
0
0
0
0
0
0
0
0
0
0
0
0
0
0
0
0
0
0
0
0
0
0
0
0
0
0
0
0
0
0
0
0
0
0
0
0
0
0
0
0
0
0
0
0
0
0
0
0
0
0
0
0
0
0
0
0
0
0
0
0
0
0
0
0
0
0
0
0
0
0
0
0
0
0
0
0
0
0
0
0
0
0
0
0
0
0
0
0
0
0
0
0
0
0
0
0
0
0
0
0
0
0
0
0
0
0
0
0
0
0
0
0
0
0
0
0
0
0
0
0
0
0
0
0
0
0
0
0
0
0
0
0
0
0
0
0
0
0
0
0
0
0
0
0
0
0
0
0
0
0
0
0
0
0
0
0
0
0
0
0
0
0
0
0
0
0
0
0
0
0
0
0
0
0
0
0
0
0
0
0
0
0
0
0
0
0
0
0
0
0
0
0
0
0
0
0
0
0
0
0
0
0
0
0
0
0
0
0
0
0
0
0
0
0
0
0
0
0
0
0
0
0
0
0
0
0
0
0
0
0
0
0
0
0
0
0
0
0
0
0
0
0
0
0
0
0
0
0
0
0
0
0
0
0
0
0
0
0
0
0
0
0
0
0
0
0
0
0
0
0
0
0
0
0
0
0
0
0
0
0
0
0
0
0
0
0
0
0
0
0
0
0
0
0
0
0
0
0
0
0
0
0
0
0
0
0
0
0
0
0
0
0
0
0
0
0
0
0
0
0
0
0
0
0
0
0
0
0
0
0
0
0
0
0
0
0
0
0
0
0
0
0
0
0
0
0
0
0
0
0
0
0
0
0
0
0
0
0
0
0
0
0
0
0
0
0
0
0
0
0
0
0
0
0
0
0
0
0
0
0
0
0
0
0
0
0
0
0
0
0
0
0
0
0
0
0
0
0
0
0
0
0
0
0
0
0
0
0
0
0
0
0
0
0
0
0
0
0
SCALARS rhs double 1
LOOKUP_TABLE default
-5.06566
-5.008
-5.00624
-5.00529
-5.00396
-5.00298
-5.00192
-5.00096
-5.00001
-4.99918
-4.99854
-4.99826
-4.99847
-4.99941
-5.00109
-5.00344
-5.00617
-5.00883
-5.0085
-5.01072
-5.01155
-5.01006
-5.00744
-5.00413
-5.00065
-4.99746
-4.99485
-4.99291
-4.99161
-4.9908
-4.99031
-4.99001
-4.9898
-4.98962
-4.98944
-4.98932
-4.98964
-4.99493
-5.0286
-5.13016
-0.00710121
0.0474122
0.0476864
0.0481865
0.0484511
0.048819
0.049203
0.0497109
0.050136
0.0505749
0.0508005
0.0506189
0.0500535
0.0488794
0.0469964
0.04451
0.04168
0.0389285
0.0391531
0.0369814
0.0355991
0.0367045
0.0388872
0.0417235
0.0447246
0.047463
0.0496679
0.0512485
0.0522502
0.0528031
0.0530585
0.0531796
0.0531924
0.0531966
0.0532104
0.0532226
0.052971
0.0480005
0.0120204
-0.0963089
-0.00285376
0.0488351
0.0493034
0.0497327
0.0497813
0.0501678
0.0504311
0.0507994
0.0511756
0.0514541
0.0515858
0.0510985
0.0503198
0.0488765
0.0466914
0.0438371
0.0406182
0.0375087
0.0374783
0.0358035
0.0337611
0.0350461
0.0375459
0.0407968
0.0442396
0.0473973
0.0499587
0.051821
0.0530378
0.0537491
0.0541472
0.0543462
0.0543982
0.0544175
0.0544263
0.0544632
0.054505
0.0506759
0.0179869
-0.0810286
0.00152312
0.0501174
0.0507538
0.050793
0.0509494
0.0510746
0.0512951
0.0514644
0.0516743
0.0517621
0.051688
0.0508063
0.0495663
0.0476504
0.0448897
0.0413948
0.0374858
0.0337258
0.0330864
0.0326548
0.029264
0.0308498
0.033916
0.0378992
0.0421296
0.0460292
0.0492309
0.0516041
0.0532066
0.0541987
0.0549389
0.0551736
0.0553011
0.0553579
0.0553803
0.0554623
0.0557617
0.0527423
0.0227062
-0.0688064
0.00640326
0.0516942
0.0520736
0.0520224
0.0520431
0.052026
0.0520198
0.0519973
0.0519104
0.0516948
0.0511883
0.0499661
0.0477018
0.0449359
0.0411604
0.036502
0.0313841
0.0265021
0.0247372
0.0265795
0.0208124
0.02289
0.0268972
0.0321286
0.0377183
0.0429079
0.0472227
0.0504886
0.0527674
0.0543606
0.0554719
0.0558519
0.0561052
0.0562369
0.0563106
0.0564846
0.0570315
0.0545198
0.0263681
-0.0595479
0.0119029
0.0533208
0.053427
0.0533464
0.0531332
0.0529315
0.0526505
0.0523141
0.0518316
0.0511101
0.0499692
0.0484817
0.0440676
0.0397635
0.0341341
0.0273795
0.0200858
0.0132447
0.00931317
0.0155192
0.00544439
0.0083075
0.0138583
0.0212401
0.0292069
0.0366707
0.0429558
0.0478074
0.0512878
0.0545662
0.0554901
0.0562844
0.0567449
0.0570056
0.0571884
0.057556
0.0584981
0.056443
0.0294401
-0.0526818
0.0179925
0.0549474
0.0549643
0.054674
0.0542689
0.0537686
0.0531741
0.0523841
0.0513396
0.0498484
0.0476575
0.0452529
0.0378978
0.0303882
0.021269
0.0105766
-0.000741648
-0.0111289
-0.0187492
-0.00529894
-0.0220597
-0.0184492
-0.0104508
0.000733727
0.0130214
0.024659
0.0345748
0.042343
0.0493591
0.0530562
0.0550181
0.05638
0.0571663
0.0576039
0.0579443
0.0586823
0.0605815
0.059915
0.0340117
-0.0465325
0.0245587
0.0567314
0.05662
0.0560632
0.0554244
0.0545778
0.0535559
0.0522017
0.0503432
0.04769
0.0437861
0.0380755
0.0310418
0.0135833
-0.00239003
-0.0208748
-0.0400874
-0.0571605
-0.0684671
-0.0490574
-0.0697735
-0.0684519
-0.0571583
-0.038949
-0.0182747
0.00152219
0.0184747
0.0324454
0.0458663
0.049837
0.0537265
0.0561015
0.0573893
0.0579722
0.0583989
0.0597149
0.0639565
0.0682442
0.0458846
-0.036474
0.0315711
0.0587272
0.0583593
0.0575616
0.056581
0.0553614
0.0538087
0.0517428
0.048795
0.0443899
0.037675
0.0275952
0.0172756
-0.0159201
-0.0469736
-0.0819968
-0.117945
-0.148139
-0.16272
-0.131774
-0.157872
-0.163824
-0.151634
-0.119695
-0.081079
-0.0439588
-0.0125538
0.0238597
0.0334557
0.0440985
0.0512356
0.0555837
0.057718
0.058148
0.0581355
0.0600338
0.0693238
0.0879072
0.0779169
-0.0121256
0.0390479
0.0608913
0.0602209
0.0591101
0.0577369
0.056083
0.0539619
0.0510549
0.0467397
0.0397582
0.0283468
0.0104221
-0.0166299
-0.0470806
-0.134592
-0.207523
-0.282465
-0.338658
-0.341115
-0.284789
-0.318182
-0.345293
-0.354562
-0.295064
-0.213395
-0.136104
-0.0509897
-0.0123953
0.0130714
0.0327925
0.046561
0.0551535
0.0590526
0.0582956
0.0558734
0.0576243
0.0764661
0.130664
0.155262
0.0450368
0.046948
0.06319
0.0621766
0.0606324
0.0588182
0.0567133
0.0540378
0.0503015
0.0445554
0.0337658
0.0140788
-0.0185712
-0.0702247
-0.134237
-0.28881
-0.477884
-0.645653
-0.746629
-0.651391
-0.537141
-0.579987
-0.662595
-0.789148
-0.681335
-0.496613
-0.304757
-0.135865
-0.0785485
-0.0282014
0.00852653
0.0359257
0.0538168
0.0607581
0.0557463
0.0451922
0.0456234
0.0796078
0.211851
0.312448
0.154816
0.0551188
0.0655837
0.0640901
0.0619905
0.0596756
0.0572284
0.0541011
0.0498718
0.0437394
0.0271502
-0.00841286
-0.0708066
-0.17525
-0.334962
-0.514949
-1.03351
-1.35319
-1.48584
-1.08253
-0.853978
-0.905743
-1.10103
-1.4904
-1.34258
-1.01705
-0.51962
-0.355733