# vtk DataFile Version 4.0
Nusif Fluid VTK output
ASCII
DATASET STRUCTURED_POINTS
DIMENSIONS 40 30 1
ORIGIN 0 0 0 
SPACING 0.2 0.2 1
POINT_DATA 1200 

VECTORS velocity double
-0.00518855 0.00437069  0
-0.0154541 0.00431484  0
-0.0254883 0.00419648  0
-0.0352115 0.00400653  0
-0.044469 0.00373296  0
-0.0530792 0.00336138  0
-0.0608308 0.00287637  0
-0.0674825 0.00226325  0
-0.0727659 0.00150979  0
-0.0763923 0.000607962  0
-0.078064 -0.00044355  0
-0.0774899 -0.0016366  0
-0.0744085 -0.00294971  0
-0.0686169 -0.00434596  0
-0.0600034 -0.0057706  0
-0.0485837 -0.00715148  0
-0.0345313 -0.00840301  0
-0.0181954 -0.00943482  0
-9.71019e-05 -0.0101653  0
0.0190905 -0.0105245  0
0.0385999 -0.0104875  0
0.0576393 -0.0100552  0
0.0754565 -0.00926625  0
0.0914066 -0.00818913  0
0.105 -0.00691057  0
0.115925 -0.00552232  0
0.124048 -0.00410965  0
0.129391 -0.00274449  0
0.132107 -0.00148299  0
0.132443 -0.000365655  0
0.130713 0.000580508  0
0.127277 0.00134031  0
0.122511 0.00190898  0
0.116788 0.00229704  0
0.11041 0.00256215  0
0.103394 0.00293463  0
0.094812 0.00412781  0
0.0815891 0.00757512  0
0.0582985 0.0141952  0
0.0216716 0.0209114  0
-0.00524449 0.0132253  0
-0.0156284 0.0130611  0
-0.0257964 0.0127137  0
-0.0356746 0.0121553  0
-0.0451137 0.0113483  0
-0.0539355 0.0102479  0
-0.0619285 0.00880675  0
-0.0688485 0.00697909  0
-0.0744207 0.00472606  0
-0.0783453 0.00202124  0
-0.0803081 -0.00114221  0
-0.0799956 -0.00474286  0
-0.0771177 -0.00871966  0
-0.0714376 -0.0129636  0
-0.0628087 -0.01731  0
-0.0512159 -0.0215385  0
-0.0368139 -0.025384  0
-0.0199543 -0.0285628  0
-0.00118695 -0.0308164  0
0.0187648 -0.0319267  0
0.0390684 -0.0318129  0
0.0588602 -0.0304767  0
0.0773222 -0.0280408  0
0.0937616 -0.0247222  0
0.107666 -0.0207946  0
0.118725 -0.0165441  0
0.126825 -0.0122337  0
0.132018 -0.0080818  0
0.134486 -0.00425621  0
0.134506 -0.000876642  0
0.132419 0.00197801  0
0.128603 0.00426448  0
0.12345 0.0059715  0
0.117339 0.00713526  0
0.110571 0.00793578  0
0.103142 0.00907006  0
0.0941152 0.0126657  0
0.0804908 0.0229484  0
0.0571344 0.0425325  0
0.0211421 0.0622568  0
-0.00535307 0.022305  0
-0.0159661 0.0220459  0
-0.0263938 0.0214958  0
-0.0365764 0.020606  0
-0.0463759 0.0193093  0
-0.0556201 0.0175266  0
-0.0640988 0.0151743  0
-0.0715624 0.0121704  0
-0.0777231 0.00844363  0
-0.08226 0.00394185  0
-0.084827 -0.0013559  0
-0.0850661 -0.00742487  0
-0.0826285 -0.0141749  0
-0.0772067 -0.0214314  0
-0.068578 -0.0289206  0
-0.0566572 -0.0362623  0
-0.0415539 -0.042986  0
-0.0236194 -0.0485755  0
-0.00346224 -0.0525491  0
0.0180848 -0.0545139  0
0.0400489 -0.0543149  0
0.0614112 -0.051951  0
0.0812106 -0.0476507  0
0.0986523 -0.0418169  0
0.113177 -0.0349535  0
0.124486 -0.0275775  0
0.13251 -0.0201503  0
0.137369 -0.0130433  0
0.139312 -0.00653308  0
0.138676 -0.000812301  0
0.135853 0.0039956  0
0.131262 0.0078258  0
0.125328 0.0106677  0
0.118455 0.0125938  0
0.11095 0.0139213  0
0.10281 0.0158232  0
0.093117 0.0218021  0
0.0790121 0.0387114  0
0.0556887 0.0706193  0
0.0205185 0.102503  0
-0.00550422 0.0316519  0
-0.0164384 0.0313237  0
-0.0272365 0.0306201  0
-0.0378611 0.0294658  0
-0.0481929 0.0277583  0
-0.0580701 0.0253775  0
-0.0672843 0.0221956  0
-0.0755789 0.0180871  0
-0.0826491 0.0129385  0
-0.0881445 0.00666058  0
-0.0916736 -0.000796717  0
-0.0928127 -0.0094234  0
-0.091123 -0.0191206  0
-0.0861827 -0.029664  0
-0.0776393 -0.0406761  0
-0.0652809 -0.0516019  0
-0.0491256 -0.0617205  0
-0.0295089 -0.0702077  0
-0.00713046 -0.0762681  0
0.0169885 -0.0792768  0
0.0416352 -0.0789792  0
0.065527 -0.0753578  0
0.0874574 -0.0687912  0
0.10646 -0.0599385  0
0.121906 -0.0496223  0
0.133529 -0.0386595  0
0.141359 -0.027744  0
0.145635 -0.0174052  0
0.146716 -0.00801737  0
0.145033 0.000167355  0
0.141054 0.0069948  0
0.135261 0.0123876  0
0.128133 0.0163435  0
0.120119 0.0189809  0
0.111565 0.0207682  0
0.102498 0.023359  0
0.0920494 0.0315823  0
0.0774993 0.0547613  0
0.0542916 0.0982753  0
0.0199374 0.141546  0
-0.00568201 0.0413363  0
-0.016999 0.0409791  0
-0.0282523 0.0401975  0
-0.0394384 0.0388814  0
-0.0504641 0.0368832  0
-0.0611827 0.034032  0
-0.0713893 0.0301463  0
-0.0808197 0.0250463  0
-0.08915 0.0185652  0
-0.0959956 0.0105611  0
-0.10091 0.000933531  0
-0.103388 -0.0103496  0
-0.102867 -0.0232166  0
-0.0987611 -0.0374254  0
-0.0905149 -0.0525151  0
-0.0777005 -0.0677461  0
-0.0601586 -0.0820834  0
-0.0381647 -0.0942654  0
-0.0125479 -0.103016  0
0.0153676 -0.107374  0
0.0439869 -0.106959  0
0.0716083 -0.101703  0
0.0966324 -0.0922128  0
0.117821 -0.0795204  0
0.134456 -0.0649352  0
0.146364 -0.0496916  0
0.153764 -0.0347579  0
0.157093 -0.0208122  0
0.156881 -0.00829612  0
0.153686 0.00250618  0
0.14807 0.0114326  0
0.140593 0.0184018  0
0.13181 0.0234216  0
0.122249 0.0266588  0
0.112333 0.0287406  0
0.102159 0.0318086  0
0.0909274 0.0419929  0
0.0760137 0.0709948  0
0.052996 0.125447  0
0.0194154 0.179489  0
-0.00586233 0.0513884  0
-0.0175787 0.0510616  0
-0.029335 0.0503118  0
-0.0411756 0.0489814  0
-0.0530423 0.0468639  0
-0.0648073 0.0437238  0
-0.0762706 0.0393139  0
-0.0871606 0.0333892  0
-0.0971349 0.0257176  0
-0.105777 0.0160876  0
-0.112585 0.00432203  0
-0.116959 -0.00969312  0
-0.118193 -0.0259664  0
-0.115478 -0.0443024  0
-0.107957 -0.0642105  0
-0.0948426 -0.084784  0
-0.0756322 -0.104602  0
-0.050434 -0.121743  0
-0.0202707 -0.134122  0
0.0130551 -0.140313  0
0.0473606 -0.13975  0
0.0802872 -0.132265  0
0.109633 -0.118826  0
0.133726 -0.100995  0
0.151729 -0.0809065  0
0.163704 -0.0604121  0
0.170237 -0.0407807  0
0.172091 -0.022783  0
0.170029 -0.00686242  0
0.164761 0.00672394  0
0.156947 0.0178324  0
0.14723 0.0263831  0
0.136256 0.0323834  0
0.124668 0.036033  0
0.113025 0.0381123  0
0.101555 0.041267  0
0.0895469 0.0529594  0
0.0744025 0.0872722  0
0.0516954 0.152081  0
0.0189101 0.216408  0
-0.00600989 0.0617788  0
-0.0180772 0.0615695  0
-0.0303333 0.0610093  0
-0.0428867 0.0598714  0
-0.0557222 0.05787  0
-0.0687334 0.0546883  0
-0.0817244 0.0499989  0
-0.094416 0.0434815  0
-0.106451 0.0348305  0
-0.117389 0.023752  0
-0.12669 0.00996435  0
-0.133671 -0.00678212  0
-0.137466 -0.0266492  0
-0.136995 -0.0496051  0
-0.130976 -0.0752477  0
-0.118028 -0.102607  0
-0.0969784 -0.129837  0
-0.0675307 -0.153952  0
-0.0310648 -0.171341  0
0.0098246 -0.180108  0
0.052117 -0.179351  0
0.0924677 -0.16874  0
0.127765 -0.149794  0
0.155601 -0.124756  0
0.174966 -0.0973157  0
0.186466 -0.0702808  0
0.191386 -0.0451692  0
0.191006 -0.0226728  0
0.186386 -0.00309721  0
0.178384 0.0134231  0
0.16773 0.0267944  0
0.155127 0.0369341  0
0.141313 0.0438123  0
0.127085 0.0476129  0
0.11322 0.0492329  0
0.100184 0.0518448  0
0.0874073 0.0643573  0
0.0722433 0.103374  0
0.0500977 0.178023  0
0.0183132 0.252227  0
-0.00607281 0.0723908  0
-0.0183498 0.0724304  0
-0.031034 0.0722876  0
-0.0443157 0.0716279  0
-0.0582261 0.0700593  0
-0.0726785 0.0671628  0
-0.0874767 0.0625143  0
-0.102328 0.0557098  0
-0.116862 0.0463727  0
-0.13064 0.0341289  0
-0.143117 0.0185684  0
-0.153567 -0.000751538  0
-0.160998 -0.0242487  0
-0.16403 -0.0522387  0
-0.160796 -0.084661  0
-0.148935 -0.120794  0
-0.125973 -0.158453  0
-0.0907993 -0.192748  0
-0.0456669 -0.216934  0
0.00546475 -0.229327  0
0.0586073 -0.228358  0
0.109102 -0.213371  0
0.152513 -0.186665  0
0.185129 -0.151132  0
0.205605 -0.113576  0
0.215637 -0.0783498  0
0.217795 -0.0469759  0
0.21416 -0.0196499  0
0.206136 0.003723  0
0.19467 0.0232705  0
0.18048 0.0389899  0
0.164256 0.0507649  0
0.146801 0.0584483  0
0.129101 0.0621042  0
0.112263 0.0626427  0
0.0971654 0.0637663  0
0.0835278 0.0760472  0
0.0686332 0.118941  0
0.0475552 0.202878  0
0.0173852 0.286524  0
-0.00597141 0.082976  0
-0.0181823 0.0834766  0
-0.0311373 0.0840859  0
-0.0451161 0.0842958  0
-0.0601873 0.0835788  0
-0.0762781 0.0813924  0
-0.0931773 0.0771883  0
-0.110557 0.0704728  0
-0.128032 0.0608264  0
-0.145198 0.0478273  0
-0.161577 0.030934  0
-0.176494 0.00945979  0
-0.188897 -0.0174148  0
-0.197111 -0.0506152  0
-0.198449 -0.0909677  0
-0.188832 -0.138751  0
-0.16347 -0.191605  0
-0.120308 -0.240715  0
-0.0638367 -0.273355  0
-5.77634e-05 -0.290601  0
0.0665446 -0.289614  0
0.129976 -0.268827  0
0.183961 -0.231391  0
0.222661 -0.180509  0
0.244101 -0.128904  0
0.251605 -0.0833485  0
0.249675 -0.0449968  0
0.241653 -0.0127653  0
0.229362 0.0143587  0
0.213728 0.0369407  0
0.195319 0.0551234  0
0.174683 0.0686957  0
0.152611 0.0772493  0
0.130265 0.080554  0
0.109216 0.0792836  0
0.0910536 0.077589  0
0.0761037 0.0880156  0
0.0617605 0.133414  0
0.0427153 0.225732  0
0.0156242 0.318135  0
-0.00557518 0.0930757  0
-0.0172465 0.0944181  0
-0.0302222 0.0962868  0
-0.04483 0.0978932  0
-0.061138 0.0985725  0
-0.0790796 0.097643  0
-0.0984068 0.094376  0
-0.118703 0.0881723  0
-0.139529 0.0786406  0
-0.160562 0.065425  0
-0.181516 0.0478828  0
-0.201905 0.0250321  0
-0.220731 -0.00454123  0
-0.2359 -0.0428875  0
-0.243195 -0.0928436  0
-0.235465 -0.157001  0
-0.205065 -0.231896  0
-0.151202 -0.300226  0
-0.0826582 -0.341636  0
-0.00661147 -0.364922  0
0.0734745 -0.364759  0
0.150741 -0.337159  0
0.216452 -0.285535  0
0.262108 -0.213501  0
0.285734 -0.14376  0
0.291814 -0.0848604  0
0.285888 -0.0384153  0
0.273025 -0.0012497  0
0.255948 0.0294224  0
0.235698 0.0549726  0
0.212578 0.0758306  0
0.186787 0.0916259  0
0.158922 0.101468  0
0.1302 0.104613  0
0.102774 0.100908  0
0.0794411 0.09467  0
0.0617726 0.100763  0
0.0479896 0.146002  0
0.0328286 0.244558  0
0.0120367 0.344401  0
-0.00466154 0.101878  0
-0.0150478 0.104848  0
-0.0277569 0.10876  0
-0.0429403 0.11243  0
-0.0605619 0.115183  0
-0.0806104 0.11624  0
-0.102802 0.114516  0
-0.126482 0.109226  0
-0.151021 0.100169  0
-0.17625 0.0873762  0
-0.202264 0.0701194  0
-0.228882 0.0470224  0
-0.255055 0.0156895  0
-0.27744 -0.0283403  0
-0.28839 -0.0919204  0
-0.276078 -0.180738  0
-0.233818 -0.283589  0
-0.169938 -0.369044  0
-0.0959514 -0.418118  0
-0.0141573 -0.449051  0
0.0736895 -0.451334  0
0.160112 -0.417045  0
0.23367 -0.347691  0
0.283166 -0.249272  0
0.31225 -0.163477  0
0.325402 -0.0871551  0
0.321507 -0.0290805  0
0.306522 0.0144816  0
0.28555 0.0489563  0
0.260954 0.0775014  0
0.233117 0.101475  0
0.201622 0.120484  0
0.166461 0.132852  0
0.128496 0.137133  0
0.0906535 0.130873  0
0.0578306 0.118077  0
0.0338972 0.116173  0
0.0199338 0.155554  0
0.0125572 0.25476  0
0.00485929 0.359905  0
-0.00297734 0.108096  0
-0.0112386 0.114469  0
-0.0237141 0.121548  0
-0.0396063 0.127941  0
-0.0586389 0.13355  0
-0.0811653 0.137672  0
-0.106965 0.138298  0
-0.134779 0.13416  0
-0.163374 0.12559  0
-0.192852 0.113886  0
-0.223948 0.0979433  0
-0.256475 0.0755679  0
-0.288346 0.0424148  0
-0.312865 -0.0109318  0
-0.316029 -0.0979837  0
-0.282818 -0.222963  0
-0.222482 -0.346723  0
-0.160209 -0.434824  0
-0.096033 -0.493263  0
-0.0206637 -0.533833  0
0.061551 -0.539377  0
0.14302 -0.499656  0
0.212549 -0.410931  0
0.253603 -0.279347  0
0.289447 -0.2011  0
0.328728 -0.104738  0
0.344427 -0.0260773  0
0.337756 0.030358  0
0.317597 0.0714314  0
0.290697 0.103745  0
0.259222 0.131765  0
0.221759 0.156373  0
0.176402 0.174704  0
0.123179 0.183692  0
0.0673081 0.17525  0
0.0170664 0.153987  0
-0.0201875 0.138672  0
-0.0351611 0.159213  0
-0.0261213 0.246658  0
-0.00828524 0.355089  0
-0.00161978 0.111284  0
-0.00932035 0.124449  0
-0.0235518 0.135505  0
-0.0410212 0.144576  0
-0.061533 0.153689  0
-0.0870159 0.16277  0
-0.117876 0.167087  0
-0.151424 0.16396  0
-0.184572 0.154758  0
-0.217793 0.144645  0
-0.252608 0.130322  0
-0.287175 0.107512  0
-0.316036 0.0684339  0
-0.327489 -0.00374507  0
-0.303651 -0.128608  0
-0.239088 -0.292872  0
-0.172492 -0.405814  0
-0.123488 -0.488388  0
-0.0721825 -0.556561  0
-0.0159899 -0.603477  0
0.0396297 -0.608947  0
0.0913476 -0.564654  0
0.136971 -0.462466  0
0.165143 -0.298419  0
0.212603 -0.267408  0
0.287009 -0.154887  0
0.340757 -0.0481475  0
0.36159 0.0354933  0
0.353283 0.0919866  0
0.329641 0.130958  0
0.298044 0.164851  0
0.254473 0.201548  0
0.189807 0.236782  0
0.10591 0.255963  0
0.0198517 0.242138  0
-0.0568664 0.211288  0
-0.115422 0.174408  0
-0.128198 0.148453  0
-0.0871318 0.204538  0
-0.027975 0.317442  0
-0.0106631 0.122171  0
-0.0348308 0.142653  0
-0.0599135 0.153852  0
-0.0815139 0.162535  0
-0.102826 0.17479  0
-0.131236 0.192797  0
-0.169693 0.20361  0
-0.212156 0.200679  0
-0.249982 0.186242  0
-0.283878 0.177509  0
-0.315781 0.161407  0
-0.338244 0.130689  0
-0.342126 0.0752338  0
-0.318481 -0.0255  0
-0.269939 -0.181992  0
-0.241167 -0.334891  0
-0.153673 -0.382985  0
-0.0469636 -0.256063  0
-0.0121943 -0.292064  0
0.00991676 -0.316051  0
0.0182672 -0.317971  0
0.0150599 -0.294688  0
-0.00487173 -0.241683  0
0.107422 -0.30699  0
0.234648 -0.308287  0
0.260043 -0.215193  0
0.325856 -0.109482  0
0.385421 0.0136579  0
0.404124 0.100654  0
0.39495 0.152336  0
0.37305 0.194203  0
0.326583 0.259467  0
0.216363 0.350985  0
0.0603319 0.378922  0
-0.0651515 0.327956  0
-0.160454 0.294726  0
-0.244798 0.231104  0
-0.24945 0.106417  0
-0.159819 0.113107  0
-0.0504773 0.237604  0
-0.0563556 0.188495  0
-0.147162 0.189919  0
-0.199175 0.182302  0
-0.226391 0.181521  0
-0.244975 0.194319  0
-0.277983 0.233304  0
-0.33255 0.254052  0
-0.388974 0.246357  0
-0.425634 0.212283  0
-0.448166 0.205131  0
-0.458335 0.17309  0
-0.437813 0.118181  0
-0.387287 0.0383347  0
-0.325341 -0.0762627  0
-0.295037 -0.211454  0
-0.268102 -0.273172  0
-0.120583 -0.167445  0
0 0  0
0 0  0
0 0  0
0 0  0
0 0  0
0 0  0
0.117324 -0.154144  0
0.200798 -0.154144  0
0.283443 -0.195591  0
0.399937 -0.150593  0
0.433938 -0.0408741  0
0.484685 0.0829668  0
0.506867 0.154247  0
0.516498 0.201797  0
0.486432 0.326336  0
0.401756 0.477633  0
0.124475 0.684206  0
-0.160143 0.431393  0
-0.2585 0.383567  0
-0.34221 0.308935  0
-0.328011 0.0169644  0
-0.200973 -0.0168781  0
-0.065618 0.120126  0
-0.0461152 0.122425  0
-0.124669 0.112185  0
-0.182578 0.0999318  0
-0.228084 0.0955877  0
-0.278078 0.101625  0
-0.375551 0.270616  0
-0.443064 0.283849  0
-0.452067 0.280603  0
-0.479606 0.240852  0
-0.52378 0.241885  0
-0.538808 0.159459  0
-0.496748 0.0664633  0
-0.465296 0.00600165  0
-0.327723 -0.0502822  0
-0.242593 -0.105727  0
-0.147519 -0.105727  0
0 0  0
0 0  0
0 0  0
0 0  0
0 0  0
0 0  0
0 0  0
0 0  0
0 0  0
0.199969 -0.0752965  0
0.433833 -0.11308  0
0.467728 -0.0755671  0
0.479929 0.0533275  0
0.49605 0.144201  0
0.49997 0.19691  0
0.392346 0.278754  0
0.126518 0.264023  0
0.143926 0.455537  0
0.0833069 0.244572  0
-0.189947 0.212087  0
-0.199509 0.155504  0
-0.172047 -0.0410293  0
-0.14567 -0.113683  0
-0.0596469 -0.00582989  0
0 0  0
0 0  0
0 0  0
0 0  0
0 0  0
-0.221532 0.141925  0
-0.445942 0.141925  0
-0.439837 0.144803  0
-0.468564 0.129694  0
-0.485401 0.20784  0
-0.464525 0.148158  0
-0.464525 0.03432  0
-0.464911 0.0201608  0
-0.232648 0.00300083  0
0 0  0
0 0  0
0 0  0
0 0  0
0 0  0
0 0  0
0 0  0
0 0  0
0 0  0
0 0  0
0 0  0
0 0  0
0.233864 -0.0377835  0
0.409381 -0.0377835  0
0.372005 0.0205635  0
0.418158 0.0701403  0
0.471655 0.098455  0
0.249985 0.098455  0
0 0  0
0 0  0
0 0  0
0 0  0
-0.0860235 -0.0205147  0
-0.122532 -0.0205147  0
-0.133447 -0.0700297  0
-0.0969382 -0.0327384  0
0 0  0
0 0  0
0 0  0
0 0  0
0 0  0
0 0  0
0 0  0
0 0  0
0 0  0
-0.232262 0.0740789  0
-0.407606 0.0740789  0
-0.407606 0.01716  0
-0.232262 0.01716  0
0 0  0
0 0  0
0 0  0
0 0  0
0 0  0
0 0  0
0 0  0
0 0  0
0 0  0
0 0  0
0 0  0
0 0  0
0 0  0
0 0  0
0 0  0
0 0  0
0 0  0
0 0  0
0 0  0
0 0  0
0 0  0
0 0  0
0 0  0
0 0  0
0 0  0
0 0  0
0 0  0
0 0  0
0 0  0
0 0  0
0 0  0
0 0  0
0 0  0
0 0  0
0 0  0
0 0  0
0 0  0
0 0  0
0 0  0
0 0  0
0 0  0
0 0  0
0 0  0
0 0  0
0 0  0
0 0  0
0 0  0
0 0  0
0 0  0
0 0  0
0 0  0
0 0  0
0 0  0
0 0  0
0 0  0
0 0  0
0 0  0
0 0  0
0 0  0
0 0  0
0 0  0
0 0  0
0 0  0
0 0  0
0 0  0
0 0  0
0 0  0
0 0  0
0 0  0
0 0  0
0 0  0
0 0  0
0 0  0
0 0  0
0 0  0
0 0  0
0 0  0
0 0  0
0 0  0
0 0  0
0 0  0
0 0  0
0 0  0
0 0  0
0 0  0
0 0  0
0 0  0
0 0  0
0 0  0
0 0  0
0 0  0
0 0  0
0 0  0
0 0  0
0 0  0
0 0  0
0 0  0
0 0  0
0 0  0
0 0  0
0 0  0
0 0  0
0 0  0
0 0  0
0 0  0
0 0  0
0 0  0
0 0  0
0 0  0
0 0  0
0 0  0
0 0  0
0 0  0
0 0  0
0 0  0
0 0  0
0 0  0
0 0  0
0 0  0
0 0  0
0 0  0
0 0  0
0 0  0
0 0  0
0 0  0
0 0  0
0 0  0
0 0  0
0 0  0
0 0  0
0 0  0
0 0  0
0 0  0
0 0  0
0 0  0
0 0  0
0 0  0
0 0  0
0 0  0
0 0  0
0 0  0
0 0  0
0 0  0
0 0  0
0 0  0
0 0  0
0 0  0
0 0  0
0 0  0
0 0  0
0 0  0
0 0  0
0 0  0
0 0  0
0 0  0
0 0  0
0 0  0
0 0  0
0 0  0
0 0  0
0 0  0
0 0  0
0 0  0
0 0  0
0 0  0
0 0  0
0 0  0
0 0  0
0 0  0
0 0  0
0 0  0
0 0  0
0 0  0
0 0  0
0 0  0
0 0  0
0 0  0
0 0  0
0 0  0
0 0  0
0 0  0
0 0  0
0 0  0
0 0  0
0 0  0
0 0  0
0 0  0
0 0  0
0 0  0
0 0  0
0 0  0
0 0  0
0 0  0
0 0  0
0 0  0
0 0  0
0 0  0
0 0  0
0 0  0
0 0  0
0 0  0
0 0  0
0 0  0
0 0  0
0 0  0
0 0  0
0 0  0
0 0  0
0 0  0
0 0  0
0 0  0
0 0  0
0 0  0
0 0  0
0 0  0
0 0  0
0 0  0
0 0  0
0 0  0
0 0  0
0 0  0
0 0  0
0 0  0
0 0  0
0 0  0
0 0  0
0 0  0
0 0  0
0 0  0
0 0  0
0 0  0
0 0  0
0 0  0
0 0  0
0 0  0
0 0  0
0 0  0
0 0  0
0 0  0
0 0  0
0 0  0
0 0  0
0 0  0
0 0  0
0 0  0
0 0  0
0 0  0
0 0  0
0 0  0
0 0  0
0 0  0
0 0  0
0 0  0
0 0  0
0 0  0
0 0  0
0 0  0
0 0  0
0 0  0
0 0  0
0 0  0
0 0  0
0 0  0
0 0  0
0 0  0
0 0  0
0 0  0
0 0  0
0 0  0
0 0  0
0 0  0
0 0  0
0 0  0
0 0  0
0 0  0
0 0  0
0 0  0
0 0  0
0 0  0
0 0  0
0 0  0
0 0  0
0 0  0
0 0  0
0 0  0
0 0  0
0 0  0
0 0  0
0 0  0
0 0  0
0 0  0
0 0  0
0 0  0
0 0  0
0 0  0
0 0  0
0 0  0
0 0  0
0 0  0
0 0  0
0 0  0
0 0  0
0 0  0
0 0  0
0 0  0
0 0  0
0 0  0
0 0  0
0 0  0
0 0  0
0 0  0
0 0  0
0 0  0
0 0  0
0 0  0
0 0  0
0 0  0
0 0  0
0 0  0
0 0  0
0 0  0
0 0  0
0 0  0
0 0  0
0 0  0
0 0  0
0 0  0
0 0  0
0 0  0
0 0  0
0 0  0
0 0  0
0 0  0
0 0  0
0 0  0
0 0  0
0 0  0
0 0  0
0 0  0
0 0  0
0 0  0
0 0  0
0 0  0
0 0  0
0 0  0
0 0  0
0 0  0
0 0  0
0 0  0
0 0  0
0 0  0
0 0  0
0 0  0
0 0  0
0 0  0
0 0  0
0 0  0
0 0  0
0 0  0
0 0  0
0 0  0
0 0  0
0 0  0
0 0  0
0 0  0
0 0  0
0 0  0
0 0  0
0 0  0
0 0  0
0 0  0
0 0  0
0 0  0
0 0  0
0 0  0
0 0  0
0 0  0
0 0  0
0 0  0
0 0  0
0 0  0
0 0  0
0 0  0
0 0  0
0 0  0
0 0  0
0 0  0
0 0  0
0 0  0
0 0  0
0 0  0
0 0  0
0 0  0
0 0  0
0 0  0
0 0  0
0 0  0
0 0  0
0 0  0
0 0  0
0 0  0
0 0  0
0 0  0
0 0  0
0 0  0
0 0  0
0 0  0
0 0  0
0 0  0
0 0  0
0 0  0
0 0  0
0 0  0
0 0  0
0 0  0
0 0  0
0 0  0
0 0  0
0 0  0
0 0  0
0 0  0
0 0  0
0 0  0
0 0  0
0 0  0
0 0  0
0 0  0
0 0  0
0 0  0
0 0  0
0 0  0
0 0  0
0 0  0
0 0  0
0 0  0
0 0  0
0 0  0
0 0  0
0 0  0
0 0  0
0 0  0
0 0  0
0 0  0
0 0  0
0 0  0
0 0  0
0 0  0
0 0  0
0 0  0
0 0  0
0 0  0
0 0  0
0 0  0
0 0  0
0 0  0
0 0  0
0 0  0
0 0  0
0 0  0
0 0  0
0 0  0
0 0  0
0 0  0
0 0  0
0 0  0
0 0  0
0 0  0
0 0  0
0 0  0
0 0  0
0 0  0
0 0  0
0 0  0
0 0  0
0 0  0
0 0  0
0 0  0
0 0  0
0 0  0
0 0  0
0 0  0
0 0  0
0 0  0
0 0  0
0 0  0
0 0  0
0 0  0
0 0  0
0 0  0
0 0  0
0 0  0
0 0  0
0 0  0
0 0  0
0 0  0
0 0  0
0 0  0
0 0  0
0 0  0
0 0  0
0 0  0
0 0  0
0 0  0
0 0  0
0 0  0
0 0  0
0 0  0

SCALARS pressure double 1
LOOKUP_TABLE default
2.57786
2.5775
2.5768
2.57575
2.57432
2.57249
2.57025
2.56759
2.56455
2.56118
2.55757
2.55385
2.55015
2.54662
2.54339
2.54059
2.53828
2.53654
2.53537
2.53501
2.5353
2.5363
2.53803
2.54056
2.54394
2.54815
2.55314
2.55881
2.56501
2.57156
2.57829
2.58504
2.59168
2.59811
2.60429
2.61019
2.61584
2.62121
2.62603
2.62941
2.38054
2.3802
2.37953
2.37853
2.37715
2.37536
2.37315
2.3705
2.36743
2.364
2.36029
2.35642
2.35253
2.34879
2.34534
2.34231
2.3398
2.33788
2.33658
2.33613
2.3364
2.33742
2.33924
2.34191
2.34546
2.34988
2.35511
2.36102
2.36744
2.3742
2.38109
2.38797
2.39469
2.40116
2.40734
2.41322
2.41883
2.42415
2.42895
2.43233
2.18584
2.18555
2.18495
2.18403
2.18275
2.18106
2.17891
2.17628
2.17317
2.1696
2.16567
2.16149
2.15721
2.15302
2.1491
2.14561
2.14268
2.1404
2.13882
2.1382
2.13842
2.13949
2.14145
2.14436
2.14826
2.1531
2.1588
2.1652
2.17208
2.17924
2.18647
2.1936
2.20048
2.20702
2.2132
2.21901
2.2245
2.22969
2.23435
2.23761
1.99375
1.99351
1.99302
1.99225
1.99114
1.98961
1.98758
1.98499
1.98181
1.97805
1.97377
1.96909
1.96419
1.95928
1.95459
1.95035
1.94674
1.94389
1.94187
1.94096
1.9411
1.94223
1.94442
1.94772
1.95217
1.95769
1.96415
1.97132
1.97894
1.98674
1.99449
2.002
2.00911
2.01575
2.0219
2.02759
2.03289
2.03784
2.04227
2.04537
1.80419
1.80403
1.8037
1.80315
1.80229
1.80101
1.79918
1.79669
1.79345
1.78943
1.78466
1.77928
1.77346
1.76747
1.76164
1.75628
1.75166
1.74797
1.7453
1.74396
1.74398
1.74522
1.74774
1.75161
1.75686
1.7634
1.771
1.77932
1.78801
1.79673
1.80522
1.81326
1.82068
1.82744
1.83352
1.839
1.84399
1.84861
1.85274
1.85564
1.61705
1.61701
1.6169
1.61666
1.61617
1.61528
1.61378
1.61148
1.60822
1.60388
1.59846
1.5921
1.58499
1.57747
1.56998
1.56298
1.5569
1.552
1.54843
1.54648
1.54638
1.54777
1.55075
1.55542
1.56186
1.56988
1.57913
1.58911
1.59931
1.60931
1.61879
1.62751
1.63533
1.64219
1.64814
1.65329
1.65783
1.66197
1.6657
1.66837
1.43222
1.43232
1.4325
1.43269
1.43273
1.4324
1.43143
1.42949
1.42629
1.42161
1.41539
1.40769
1.39879
1.38908
1.37917
1.36978
1.36158
1.35499
1.35018
1.3474
1.34719
1.34879
1.35238
1.3582
1.36636
1.37658
1.38825
1.40059
1.41288
1.4246
1.43537
1.44494
1.45321
1.46017
1.46589
1.47055
1.47443
1.47789
1.48111
1.48351
1.24953
1.24981
1.25036
1.2511
1.25187
1.25238
1.25222
1.25089
1.24792
1.24294
1.23572
1.22626
1.2149
1.20206
1.18859
1.1756
1.16422
1.15522
1.14876
1.14493
1.14465
1.14654
1.15093
1.15836
1.16913
1.1827
1.19796
1.21369
1.22884
1.24282
1.25518
1.26576
1.27455
1.28158
1.28694
1.29088
1.29381
1.29633
1.2989
1.30104
1.0688
1.06927
1.07023
1.07166
1.07341
1.07513
1.07623
1.07594
1.07351
1.06833
1.05997
1.04826
1.03348
1.01615
0.997313
0.978663
0.962283
0.949838
0.94136
0.936351
0.936099
0.938266
0.943571
0.953312
0.968269
0.987124
1.00784
1.02841
1.04748
1.06428
1.0785
1.09021
1.09956
1.10662
1.11148
1.11444
1.11608
1.11733
1.11912
1.12106
0.889827
0.89046
0.891833
0.894047
0.897056
0.900497
0.903537
0.904939
0.903542
0.898427
0.888874
0.874396
0.854928
0.831206
0.804187
0.776296
0.751536
0.73433
0.723863
0.718096
0.717838
0.720078
0.726092
0.739053
0.761176
0.788629
0.817675
0.845148
0.869383
0.88949
0.905646
0.918438
0.928381
0.935503
0.939686
0.941387
0.94138
0.94107
0.942145
0.944157
0.712491
0.713148
0.71476
0.717712
0.722243
0.728125
0.734218
0.738334
0.738721
0.734157
0.723553
0.70587
0.680491
0.647798
0.608671
0.565643
0.52589
0.503262
0.492031
0.486542
0.486238
0.487952
0.493883
0.510995
0.546117
0.586915
0.628202
0.665234
0.695697
0.719214
0.736886
0.750345
0.760923
0.768295
0.77153
0.771694
0.769862
0.76809
0.769155
0.771853
0.536821
0.537125
0.538475
0.541798
0.547926
0.55721
0.568354
0.576745
0.579921
0.576684
0.565591
0.544628
0.512338
0.468387
0.413781
0.347765
0.277698
0.253491
0.244297
0.240605
0.240378
0.241034
0.245504
0.266196
0.327159
0.385067
0.44246
0.491448
0.528554
0.554603
0.572255
0.585026
0.596466
0.60484
0.606094
0.604335
0.601144
0.599575
0.602506
0.606775
0.363243
0.36231
0.362318
0.365012
0.372161
0.385839
0.406323
0.421193
0.428124
0.427246
0.417059
0.393522
0.354018
0.298898
0.23173
0.136429
-0.0138974
-0.011767
-0.0139783
-0.0146949
-0.0139144
-0.0127589
-0.0107502
-0.00369502
0.118158
0.188587
0.266724
0.329011
0.371463
0.397338
0.411276
0.419284
0.432442
0.444805
0.439539
0.433947
0.432617
0.436948
0.444476
0.45019
0.193141
0.189005
0.185794
0.185964
0.191791
0.20895
0.250338
0.273437
0.283898
0.286396
0.280439
0.256493
0.210115
0.144335
0.0842632
-0.0194158
0
0
0
0
0
0
0
0
-0.0374092
-0.0134394
0.107178
0.185414
0.228902
0.249578
0.252815
0.242302
0.257962
0.288768
0.257456
0.246282
0.251024
0.275805
0.293595
0.299787
0.0285603
0.0173445
0.00876464
0.00476436
0.00423805
0.0107402
0.112114
0.135205
0.145642
0.151688
0.158147
0.13763
0.0827197
-0.0161851
-0.0192768
0
0
0
0
0
0
0
0
0
0
0
-0.0230235
0.0663361
0.102609
0.113511
0.0989379
0.0162263
0.0235497
0.117917
0.0270132
0.019933
0.0215817
0.105415
0.140596
0.144834
0
0
0
0
0
0
0.050137
0.00355085
0.0091989
0.0129323
0.0559401
0.0427373
-0.0171601
0
0
0
0
0
0
0
0
0
0
0
0
0
0
-0.0108367
-0.00615471
-0.00180037
0.00460136
0
0
0
0
0
0
-0.021039
-0.0131489
-0.0300254
0
0
0
0
0
0
0
0
0
0
0.010458
-0.0102693
0
0
0
0
0
0
0
0
0
0
0
0
0
0
0
0
0
0
0
0
0
0
0
0
0
0
0
0
0
0
0
0
0
0
0
0
0
0
0
0
0
0
0
0
0
0
0
0
0
0
0
0
0
0
0
0
0
0
0
0
0
0
0
0
0
0
0
0
0
0
0
0
0
0
0
0
0
0
0
0
0
0
0
0
0
0
0
0
0
0
0
0
0
0
0
0
0
0
0
0
0
0
0
0
0
0
0
0
0
0
0
0
0
0
0
0
0
0
0
0
0
0
0
0
0
0
0
0
0
0
0
0
0
0
0
0
0
0
0
0
0
0
0
0
0
0
0
0
0
0
0
0
0
0
0
0
0
0
0
0
0
0
0
0
0
0
0
0
0
0
0
0
0
0
0
0
0
0
0
0
0
0
0
0
0
0
0
0
0
0
0
0
0
0
0
0
0
0
0
0
0
0
0
0
0
0
0
0
0
0
0
0
0
0
0
0
0
0
0
0
0
0
0
0
0
0
0
0
0
0
0
0
0
0
0
0
0
0
0
0
0
0
0
0
0
0
0
0
0
0
0
0
0
0
0
0
0
0
0
0
0
0
0
0
0
0
0
0
0
0
0
0
0
0
0
0
0
0
0
0
0
0
0
0
0
0
0
0
0
0
0
0
0
0
0
0
0
0
0
0
0
0
0
0
0
0
0
0
0
0
0
0
0
0
0
0
0
0
0
0
0
0
0
0
0
0
0
0
0
0
0
0
0
0
0
0
0
0
0
0
0
0
0
0
0
0
0
0
0
0
0
0
0
0
0
0
0
0
0
0
0
0
0
0
0
0
0
0
0
0
0
0
0
0
0
0
0
0
0
0
0
0
0
0
0
0
0
0
0
0
0
0
0
0
0
0
0
0
0
0
0
0
0
0
0
0
0
0
0
0
0
0
0
0
0
0
0
0
0
0
0
0
0
0
0
0
0
0
0
0
0
0
0
0
0
0
0
0
0
0
0
0
0
0
0
0
0
0
0
0
0
0
0
0
0
0
0
0
0
0
0
0
0
0
0
0
0
0
0
0
0
0
0
0
0
0
0
0
0
0
0
0
0
0
0
0
0
0
0
0
0
0
0
0
0
0
0
0
0
0
0
0
0
0
0
0
0
0
0
0
0
0
0
0
0
0
0
0
0
0
0
0
0
0
0
0
0
0
0
0
0
0
0
0
0
0
0
0
0
0
0
0
0
0
0
0
0
0
SCALARS rhs double 1
LOOKUP_TABLE default
-5.06663
-5.01022
-5.00819
-5.00646
-5.00472
-5.00294
-5.00112
-4.99941
-4.99773
-4.99632
-4.99528
-4.99486
-4.99537
-4.99674
-4.99925
-5.00251
-5.00621
-5.00974
-5.00784
-5.01356
-5.01361
-5.01198
-5.00904
-5.00534
-5.00156
-4.99822
-4.9957
-4.99412
-4.99343
-4.99347
-4.99394
-4.99465
-4.9954
-4.99606
-4.99662
-4.99731
-4.99926
-5.00695
-5.0304
-5.07838
-0.0103004
0.0430078
0.0438532
0.0444787
0.045172
0.0460531
0.0468829
0.0478544
0.0486602
0.0493746
0.0494822
0.0491013
0.0481311
0.0461611
0.0434247
0.0399115
0.0361168
0.0325358
0.0345463
0.028938
0.0285338
0.0300605
0.0328847
0.0364668
0.0402006
0.043552
0.0461842
0.0479726
0.0489544
0.0493264
0.0492837
0.0488757
0.0483974
0.0479667
0.0475974
0.0470374
0.0450962
0.036916
0.0110606
-0.0403535
-0.00664049
0.0443362
0.0450971
0.0456076
0.0462532
0.0469649
0.0477267
0.0485593
0.0492736
0.0498173
0.0497197
0.0490933
0.0478672
0.0456362
0.0425208
0.0386132
0.0343397
0.0303254
0.0322261
0.0268648
0.0258197
0.0275406
0.0307365
0.0347794
0.0389687
0.0427382
0.0457199
0.0477918
0.0490041
0.0496783
0.0498146
0.049524
0.0491406
0.0487773
0.0484409
0.0479086
0.0461371
0.0386051
0.0144521
-0.0335687
-0.00289552
0.0453156
0.0459509
0.0463493
0.0468612
0.0473916
0.0480273
0.0486438
0.0491979
0.0494742
0.0492007
0.0480525
0.0463508
0.0436774
0.0398858
0.0352231
0.030094
0.0252696
0.0269175
0.0221216
0.0198691
0.0219471
0.0258003
0.0306832
0.0357225
0.040236
0.0438339
0.0463989
0.0480091
0.0492889
0.0495753
0.0494869
0.0492691
0.0490373
0.0487987
0.0483713
0.0468567
0.040015
0.0175092
-0.0274348
0.00126711
0.0462864
0.0467634
0.0470164
0.0472981
0.0476342
0.0480059
0.0483651
0.0485917
0.0485309
0.0480857
0.0459031
0.0435324
0.0399369
0.0350303
0.0289611
0.0222989
0.0160006
0.0169422
0.0136064
0.00903269
0.0117441
0.0167554
0.0231489
0.0297269
0.0355728
0.0402362
0.043627
0.045882
0.0481983
0.0486119
0.0488413
0.0488964
0.0489037
0.0488899
0.0487362
0.0476833
0.0416611
0.0206433
-0.0217921
0.00583544
0.0472765
0.0475572
0.0475784
0.0475745
0.0476112
0.0476283
0.0475929
0.0473616
0.0467907
0.0461545
0.0423008
0.0387609
0.0335941
0.0266438
0.0180298
0.00847226
-0.000511326
-0.00133446
-0.00105089
-0.0101557
-0.00635212
0.000653075
0.00986123
0.019314
0.0275902
0.0341094
0.0388662
0.0426455
0.0456186
0.0465804
0.0472804
0.0477548
0.048164
0.0485886
0.0490345
0.0489201
0.0441585
0.0245434
-0.0160844
0.0108348
0.0483339
0.0483471
0.0480367
0.0476696
0.0472644
0.046808
0.0462062
0.0453505
0.0440145
0.0419541
0.0380188
0.0312016
0.0233309
0.0126533
-0.000801138
-0.0159594
-0.0298795
-0.0335872
-0.0264404
-0.0437641
-0.038162
-0.0278248
-0.0132858
0.00174642
0.0145757
0.0243525
0.0313322
0.0382957
0.0410435
0.042977
0.0443182
0.0453817
0.0464046
0.0475917
0.0492228
0.0510822
0.048803
0.0308452
-0.00896709
0.0163352
0.0495319
0.0491641
0.0484035
0.0475238
0.0465223
0.0454132
0.0440648
0.04235
0.039928
0.0363719
0.032756
0.0198267
0.00732418
-0.0100433
-0.0326563
-0.0585061
-0.0806719
-0.0881867
-0.067663
-0.100374
-0.0920677
-0.0762123
-0.0518409
-0.0263199
-0.00532288
0.00987655
0.0202499
0.0317781
0.0342146
0.0370954
0.0391878
0.0409564
0.0427783
0.0451292
0.0489102
0.0548749
0.0581297
0.0430786
0.00237479
0.0224694
0.0509523
0.0500285
0.0486501
0.0470549
0.045251
0.043259
0.0409619
0.0381362
0.0342689
0.0287
0.0231228
0.00465526
-0.0161969
-0.0441821
-0.0814251
-0.124093
-0.15613
-0.167628
-0.125267
-0.184595
-0.172087
-0.144942
-0.103046
-0.0618913
-0.0306377
-0.00894313
0.00825363
0.0195931
0.0242175
0.0280069
0.0307049
0.0330189
0.0355137
0.039273
0.0466033
0.0608916
0.0768344
0.0683584
0.0231871
0.0294029
0.0526464
0.0509037
0.048671
0.0461003
0.0431858
0.0400187
0.0365729
0.0324674
0.0268073
0.0185484
0.00629029
-0.0054495
-0.0456369
-0.0826246
-0.129406
-0.183941
-0.220763
-0.241169
-0.195146
-0.271547
-0.254929
-0.195655
-0.117511
-0.0680068
-0.0432605
-0.0250764
-0.000562825
0.00374847
0.0105624
0.0146404
0.0170895
0.0189297
0.020718
0.0250954
0.0374852
0.068154
0.112701
0.119251
0.0607779
0.0372024
0.0544774
0.0515926
0.0482875
0.0443975
0.0398097
0.0349593
0.0302103
0.024914
0.0171552
0.00552012
-0.0113659
-0.0264446
-0.060945
-0.0813183
-0.0975376
-0.133709
-0.181004
-0.25252
-0.228538
-0.304854
-0.26336
-0.12395
0.0319697
0.0437771
0.00760475
-0.0148218
-0.0130174
-0.0122903
-0.00662541
-0.00420177
-0.00474094
-0.00713619
-0.0116448
-0.0108665
0.00630808
0.0691668
0.180176
0.196891
0.110776
0.045461
0.0563253
0.0523925
0.0481361
0.0423895
0.0345901
0.0263157
0.0197383
0.0139726
0.00379262
-0.0113699
-0.0297913
-0.0451219
-0.0170244
0.0377899
0.0654966
0.0656835
-0.00823881
-0.122667
-0.144374
-0.185735
-0.0735593
0.211496
0.381771
0.173016
0.121343
0.0393168
-0.0143338
-0.026083
-0.027208
-0.0314676
-0.0443061
-0.0662632
-0.0929535
-0.103847