# vtk DataFile Version 4.0
Nusif Fluid VTK output
ASCII
DATASET STRUCTURED_POINTS
DIMENSIONS 40 30 1
ORIGIN 0 0 0 
SPACING 0.2 0.2 1
POINT_DATA 1200 

VECTORS velocity double
0.00341675 -0.00440761  0
0.010311 -0.00440788  0
0.0172658 -0.00440577  0
0.0242083 -0.00439159  0
0.0311005 -0.00435149  0
0.0378735 -0.00426843  0
0.0444224 -0.00412366  0
0.0506055 -0.00389887  0
0.0562471 -0.00357869  0
0.0611466 -0.00315332  0
0.0650915 -0.00262092  0
0.0678756 -0.00198952  0
0.069319 -0.00127759  0
0.0692888 -0.000513493  0
0.0677164 0.000266668  0
0.0646099 0.00102253  0
0.0600576 0.00171376  0
0.0542252 0.0023038  0
0.0473454 0.0027619  0
0.039706 0.00306373  0
0.0316362 0.00319245  0
0.0234893 0.00314046  0
0.0156249 0.00290946  0
0.00839024 0.00250993  0
0.0021026 0.00196135  0
-0.00296922 0.00129285  0
-0.00662268 0.000541587  0
-0.00873534 -0.000249463  0
-0.00927117 -0.00103683  0
-0.0082767 -0.00178136  0
-0.00586851 -0.00245213  0
-0.00221586 -0.00302736  0
0.00247207 -0.00348882  0
0.00793294 -0.00380159  0
0.0137706 -0.00386679  0
0.0192577 -0.00345195  0
0.0230576 -0.00218028  0
0.0231775 0.000227333  0
0.0177404 0.00337645  0
0.00672362 0.00580687  0
0.00341638 -0.0131609  0
0.0103128 -0.0131682  0
0.0172823 -0.0131731  0
0.024263 -0.0131459  0
0.0312243 -0.0130441  0
0.038102 -0.0128151  0
0.0447926 -0.0124006  0
0.0511511 -0.011743  0
0.0569934 -0.0107937  0
0.0621051 -0.00952061  0
0.0662561 -0.00791666  0
0.0692197 -0.00600507  0
0.0707958 -0.00384197  0
0.0708339 -0.00151458  0
0.0692536 0.000865267  0
0.0660587 0.00317241  0
0.0613412 0.0052823  0
0.0552755 0.00708311  0
0.0481067 0.00848169  0
0.0401371 0.00940377  0
0.0317125 0.00979748  0
0.0232051 0.00963993  0
0.0149924 0.00893642  0
0.00743993 0.0077183  0
0.00088353 0.00604373  0
-0.00439042 0.00400127  0
-0.00816592 0.00170531  0
-0.0103145 -0.00071068  0
-0.010804 -0.00311116  0
-0.00969397 -0.00537433  0
-0.00712159 -0.00740453  0
-0.00328067 -0.00913522  0
0.00159356 -0.0105115  0
0.00721395 -0.0114301  0
0.013164 -0.0115974  0
0.0187068 -0.0103237  0
0.0225186 -0.00649343  0
0.0226551 0.000710183  0
0.0173228 0.0100888  0
0.00655823 0.0173016  0
0.00340905 -0.0218414  0
0.0102984 -0.0218723  0
0.0172883 -0.0219151  0
0.0243378 -0.0219189  0
0.0314321 -0.0218097  0
0.038518 -0.0214944  0
0.0454955 -0.0208689  0
0.0522134 -0.0198289  0
0.0584707 -0.0182836  0
0.0640249 -0.0161714  0
0.0686086 -0.013474  0
0.0719521 -0.0102272  0
0.0738118 -0.0065269  0
0.0739997 -0.00252593  0
0.0724099 0.00157702  0
0.0690376 0.00555882  0
0.0639827 0.00919962  0
0.0574394 0.0123063  0
0.049677 0.0147211  0
0.041027 0.0163153  0
0.031871 0.0169974  0
0.0226204 0.0167286  0
0.0136909 0.0155198  0
0.00548468 0.0134228  0
-0.00162529 0.0105339  0
-0.00731511 0.0070023  0
-0.0113387 0.0030299  0
-0.0135543 -0.00114537  0
-0.0139371 -0.00527941  0
-0.0125753 -0.00915398  0
-0.00964958 -0.0125999  0
-0.00540526 -0.0155027  0
-0.000130022 -0.0177718  0
0.0058412 -0.0192403  0
0.0120547 -0.01943  0
0.017758 -0.0172166  0
0.0216512 -0.0107852  0
0.0218683 0.0011687  0
0.0167286 0.0166225  0
0.00633067 0.0284508  0
0.00338472 -0.0304824  0
0.010238 -0.0305625  0
0.0172354 -0.0306939  0
0.0243685 -0.0308027  0
0.031649 -0.0307789  0
0.039043 -0.0304817  0
0.0464585 -0.0297496  0
0.0537368 -0.0284177  0
0.0606514 -0.0263384  0
0.0669159 -0.0234057  0
0.0722025 -0.0195789  0
0.0761708 -0.0149018  0
0.078505 -0.00951278  0
0.078954 -0.00364259  0
0.0773699 0.00240251  0
0.0737342 0.00827695  0
0.0681602 0.0136464  0
0.0608718 0.0182275  0
0.052174 0.0217962  0
0.0424416 0.0241587  0
0.0321176 0.0251697  0
0.0216843 0.0247754  0
0.0116213 0.023  0
0.00238617 0.0199177  0
-0.00559163 0.0156597  0
-0.0119299 0.0104366  0
-0.0163328 0.00455306  0
-0.0186333 -0.0016223  0
-0.0188181 -0.00770561  0
-0.0170231 -0.0133563  0
-0.0135023 -0.0183168  0
-0.0085851 -0.0224207  0
-0.00264088 -0.0255473  0
0.00392444 -0.0274759  0
0.0106049 -0.0275634  0
0.016626 -0.0242829  0
0.0207125 -0.0151741  0
0.0210811 0.0014964  0
0.0161638 0.0228763  0
0.00611978 0.0391636  0
0.00332789 -0.0390336  0
0.0100853 -0.0391994  0
0.0170474 -0.039493  0
0.0242524 -0.0398166  0
0.0317529 -0.0400192  0
0.0395471 -0.0399012  0
0.0475592 -0.0392277  0
0.0556246 -0.0377516  0
0.0634832 -0.0352445  0
0.0707863 -0.0315326  0
0.0771179 -0.0265343  0
0.0820323 -0.020292  0
0.0851048 -0.0129908  0
0.0859894 -0.00495886  0
0.084475 0.00335733  0
0.0805208 0.0114527  0
0.0742515 0.018855  0
0.0659194 0.0251807  0
0.0558642 0.0301373  0
0.0445184 0.0334368  0
0.0324365 0.0348382  0
0.0202428 0.034274  0
0.00853113 0.0318156  0
-0.00216872 0.0275759  0
-0.01136 0.0217085  0
-0.0185876 0.0144906  0
-0.0234893 0.00633957  0
-0.0258569 -0.00220576  0
-0.0256912 -0.0105691  0
-0.0232019 -0.0182442  0
-0.0187568 -0.0248628  0
-0.0128124 -0.030205  0
-0.00585575 -0.0341334  0
0.00161217 -0.0363932  0
0.00901876 -0.0362037  0
0.0155573 -0.0316731  0
0.0199675 -0.0197516  0
0.0205367 0.00166494  0
0.0158005 0.0288902  0
0.00598766 0.0495356  0
0.0032175 -0.0474081  0
0.00977638 -0.0477063  0
0.0166167 -0.0482596  0
0.0238409 -0.0489488  0
0.031563 -0.0495776  0
0.0398333 -0.0498737  0
0.048607 -0.0495058  0
0.0577192 -0.0481141  0
0.0668707 -0.0453536  0
0.0756305 -0.0409465  0
0.0834615 -0.0347417  0
0.0897707 -0.0267657  0
0.093982 -0.0172572  0
0.0956194 -0.00666987  0
0.0943827 0.00436483  0
0.0901866 0.0151416  0
0.0831203 0.0250481  0
0.0734061 0.0335806  0
0.0613831 0.0403624  0
0.0475567 0.0449306  0
0.032717 0.0468122  0
0.0178273 0.0459289  0
0.00372553 0.042519  0
-0.00895785 0.0367997  0
-0.0196879 0.0289491  0
-0.0279799 0.0193117  0
-0.0334169 0.00839822  0
-0.0357321 -0.00304159  0
-0.0349385 -0.0141537  0
-0.0313537 -0.0241959  0
-0.0255164 -0.0326567  0
-0.0180678 -0.0392682  0
-0.00965568 -0.0439038  0
-0.00090115 -0.0463106  0
0.0075432 -0.0456031  0
0.0148275 -0.0395628  0
0.0196894 -0.0246004  0
0.0204672 0.00170022  0
0.0157928 0.0347991  0
0.00598791 0.059778  0
0.00302726 -0.0554718  0
0.00922904 -0.0559553  0
0.0157997 -0.0568871  0
0.0229286 -0.0581385  0
0.0308218 -0.0594657  0
0.0396119 -0.0605068  0
0.0493101 -0.0608039  0
0.0597669 -0.0598427  0
0.0706438 -0.0571096  0
0.0814091 -0.0521703  0
0.091369 -0.0447621  0
0.0997419 -0.0348793  0
0.105766 -0.0228297  0
0.108811 -0.00922974  0
0.108456 0.00506776  0
0.104495 0.0191478  0
0.0967798 0.0323752  0
0.0852754 0.0440246  0
0.0702204 0.0535489  0
0.0522116 0.0601316  0
0.0325757 0.0626386  0
0.0131469 0.0609722  0
-0.00461925 0.0558941  0
-0.0199211 0.0479593  0
-0.032327 0.037474  0
-0.0415573 0.0248566  0
-0.0472735 0.010553  0
-0.0491385 -0.00447091  0
-0.047166 -0.0189464  0
-0.041825 -0.0317861  0
-0.0339005 -0.0422868  0
-0.0242932 -0.0501532  0
-0.0138589 -0.0553251  0
-0.0033579 -0.0576056  0
0.00647243 -0.0560439  0
0.0147344 -0.0481297  0
0.0201492 -0.0297718  0
0.0210856 0.0016957  0
0.0162728 0.0408293  0
0.00616439 0.0701996  0
0.00272634 -0.0630337  0
0.00834196 -0.0637494  0
0.014408 -0.0651895  0
0.0212316 -0.0672469  0
0.0291578 -0.0696335  0
0.0384495 -0.0718761  0
0.0492147 -0.0733518  0
0.0613488 -0.0733377  0
0.0744882 -0.0710815  0
0.0879942 -0.0659187  0
0.100996 -0.0574234  0
0.112508 -0.0455494  0
0.121592 -0.0307124  0
0.127466 -0.0137103  0
0.129491 0.00443628  0
0.127141 0.0226482  0
0.119468 0.040821  0
0.105585 0.0575246  0
0.0854726 0.0717744  0
0.0598032 0.0821427  0
0.0310487 0.0855758  0
0.00315925 0.0819103  0
-0.0207091 0.0731468  0
-0.0393534 0.0612082  0
-0.0529929 0.0468249  0
-0.0622646 0.0305608  0
-0.0673079 0.0121603  0
-0.0676828 -0.00728747  0
-0.0633856 -0.0258503  0
-0.0551169 -0.0419439  0
-0.0440167 -0.0546069  0
-0.0313361 -0.0635752  0
-0.0181721 -0.0689564  0
-0.0054157 -0.0706875  0
0.00613366 -0.067798  0
0.0155507 -0.0575112  0
0.0215457 -0.0352568  0
0.0225154 0.00181779  0
0.0173 0.0472788  0
0.00653306 0.0811689  0
0.00227647 -0.0698338  0
0.0069802 -0.0707933  0
0.0121701 -0.0728557  0
0.0183204 -0.0760074  0
0.025993 -0.079923  0
0.0356487 -0.0839837  0
0.0475487 -0.0873574  0
0.0616915 -0.0890555  0
0.0777439 -0.0880005  0
0.0949993 -0.0832043  0
0.11244 -0.074022  0
0.128919 -0.0603828  0
0.143422 -0.0429045  0
0.15501 -0.0224183  0
0.162362 0.000330324  0
0.164341 0.0236897  0
0.158239 0.0501187  0
0.141097 0.0758166  0
0.112344 0.0989116  0
0.0724838 0.1171  0
0.026186 0.122235  0
-0.0179547 0.113845  0
-0.0523674 0.0960556  0
-0.0748412 0.0759786  0
-0.0879559 0.0553687  0
-0.0950811 0.034973  0
-0.0974718 0.0117398  0
-0.0942023 -0.0132053  0
-0.0852804 -0.0365969  0
-0.0719322 -0.056261  0
-0.0558706 -0.0708999  0
-0.0388259 -0.080457  0
-0.0221094 -0.0854055  0
-0.00664355 -0.0859117  0
0.00680454 -0.0810227  0
0.0173629 -0.0677137  0
0.0238055 -0.0409439  0
0.0246061 0.00228276  0
0.0187386 0.054445  0
0.00704022 0.0930164  0
0.00160659 -0.0755029  0
0.00488846 -0.0766204  0
0.00857445 -0.0793529  0
0.0133975 -0.0839305  0
0.0202577 -0.0899782  0
0.0298927 -0.0966634  0
0.042784 -0.102912  0
0.0591492 -0.10745  0
0.0788413 -0.10879  0
0.101235 -0.105502  0
0.125279 -0.0966446  0
0.14972 -0.0821156  0
0.173631 -0.0630187  0
0.195774 -0.0394673  0
0.212273 -0.00990226  0
0.221762 0.0190242  0
0.219932 0.0592874  0
0.199344 0.100948  0
0.156813 0.141635  0
0.0920781 0.175543  0
0.0145329 0.184205  0
-0.058703 0.165819  0
-0.109947 0.126305  0
-0.134734 0.0895578  0
-0.143043 0.0597792  0
-0.145026 0.0362357  0
-0.142732 0.00713805  0
-0.132629 -0.0254143  0
-0.115087 -0.0542919  0
-0.0929746 -0.0774684  0
-0.0690648 -0.0931072  0
-0.0458943 -0.10191  0
-0.0248473 -0.105162  0
-0.00655848 -0.103356  0
0.00849907 -0.0955306  0
0.019721 -0.078433  0
0.0261771 -0.0465701  0
0.0265941 0.00324459  0
0.0200655 0.0624324  0
0.00750645 0.10584  0
0.000505543 -0.0793897  0
0.00137233 -0.0803787  0
0.00235833 -0.0837095  0
0.00463702 -0.0901172  0
0.00961979 -0.0990746  0
0.0183645 -0.109385  0
0.0316099 -0.119763  0
0.0500285 -0.128818  0
0.0740443 -0.134564  0
0.103404 -0.134913  0
0.137107 -0.128411  0
0.173273 -0.114386  0
0.211195 -0.0960077  0
0.249325 -0.0701785  0
0.275452 -0.0252406  0
0.291136 0.00576537  0
0.297871 0.0642181  0
0.280611 0.130442  0
0.220043 0.211819  0
0.114735 0.27198  0
-0.00970314 0.286329  0
-0.125687 0.24949  0
-0.196704 0.161468  0
-0.214895 0.0939458  0
-0.210914 0.0562908  0
-0.207879 0.0352431  0
-0.203449 -0.00202202  0
-0.184516 -0.0487225  0
-0.15329 -0.0831869  0
-0.117717 -0.109696  0
-0.0819798 -0.123964  0
-0.0506099 -0.129033  0
-0.0249381 -0.128199  0
-0.00462536 -0.122363  0
0.0107216 -0.110371  0
0.0212289 -0.0887645  0
0.0267932 -0.0517011  0
0.0268211 0.00448877  0
0.0203098 0.0707865  0
0.00764377 0.119269  0
-0.00165684 -0.0800018  0
-0.00549908 -0.0802735  0
-0.00968504 -0.0840522  0
-0.0122209 -0.0929536  0
-0.010966 -0.105911  0
-0.00468687 -0.121006  0
0.00751526 -0.137022  0
0.027261 -0.153153  0
0.056244 -0.166655  0
0.0945714 -0.173936  0
0.141011 -0.172956  0
0.189855 -0.158275  0
0.241652 -0.145258  0
0.297783 -0.118609  0
0.323241 -0.031813  0
0.326381 -0.00990322  0
0.340395 0.0557194  0
0.355645 0.137534  0
0.286981 0.330543  0
0.121044 0.421941  0
-0.0551655 0.434451  0
-0.206694 0.365457  0
-0.276337 0.182739  0
-0.266521 0.0776286  0
-0.249581 0.0482653  0
-0.253897 0.0411276  0
-0.262777 -0.00687935  0
-0.239573 -0.0894275  0
-0.191689 -0.125022  0
-0.14139 -0.157166  0
-0.0905562 -0.166499  0
-0.0494337 -0.162426  0
-0.0199341 -0.153414  0
9.58171e-05 -0.140928  0
0.0128197 -0.123314  0
0.0199693 -0.0969156  0
0.0232268 -0.0558093  0
0.0234599 0.004899  0
0.0188148 0.078096  0
0.00740467 0.1326  0
-0.00634511 -0.0737522  0
-0.0200306 -0.0724642  0
-0.0342472 -0.0768912  0
-0.0453513 -0.0899057  0
-0.0501593 -0.108835  0
-0.0478649 -0.130083  0
-0.0381183 -0.15332  0
-0.0175063 -0.180638  0
0.0175894 -0.206672  0
0.0652268 -0.223305  0
0.124544 -0.232763  0
0.176438 -0.202624  0
0.225692 -0.205377  0
0.291668 -0.184012  0
0.302547 -0.00530785  0
0.257019 0.0042727  0
0.230527 0.0523137  0
0.223812 0.130698  0
0.222762 0.405386  0
0.0431573 0.515872  0
-0.136447 0.519562  0
-0.142484 0.436199  0
-0.156025 0.193471  0
-0.17377 0.0731156  0
-0.199617 0.0599765  0
-0.232015 0.0644211  0
-0.275696 0.0206781  0
-0.263722 -0.154731  0
-0.205306 -0.169444  0
-0.152034 -0.219743  0
-0.0884853 -0.221735  0
-0.0386198 -0.20161  0
-0.00698535 -0.178797  0
0.00974709 -0.155741  0
0.0159852 -0.130897  0
0.016567 -0.100498  0
0.0161309 -0.0584811  0
0.0177557 0.00228087  0
0.0174972 0.0821861  0
0.00784847 0.146137  0
-0.0158931 -0.0532555  0
-0.0488449 -0.0497792  0
-0.0808033 -0.0568287  0
-0.104608 -0.0784854  0
-0.115424 -0.108057  0
-0.115031 -0.136972  0
-0.106605 -0.168025  0
-0.0832006 -0.213368  0
-0.0413643 -0.254291  0
0.00732769 -0.275431  0
0.069215 -0.305256  0
0.108644 -0.224014  0
0.114303 -0.240606  0
0.118283 -0.220446  0
0.195211 -0.100526  0
0.237726 0.0125496  0
0.177203 0.0289896  0
0.0501084 0.0658739  0
0.0859428 0.202693  0
0.0431573 0.259781  0
-0.0977845 0.259781  0
0.0168091 0.221118  0
0.023415 0.100488  0
-0.111074 0.0416778  0
-0.198545 0.0377919  0
-0.218007 0.0406058  0
-0.186067 -0.073442  0
-0.156972 -0.194453  0
-0.158494 -0.188329  0
-0.129253 -0.285942  0
-0.069723 -0.282042  0
-0.019937 -0.244383  0
0.0129741 -0.204  0
0.0270517 -0.164779  0
0.0262466 -0.130723  0
0.020316 -0.0987532  0
0.0163205 -0.0592228  0
0.0180576 -0.00376635  0
0.0215347 0.0815885  0
0.0111098 0.163382  0
-0.0317478 -0.00734562  0
-0.0956154 -0.00231255  0
-0.152752 -0.0186236  0
-0.188678 -0.0603819  0
-0.196116 -0.111328  0
-0.187942 -0.145687  0
-0.177982 -0.181113  0
-0.14996 -0.255122  0
-0.108767 -0.298127  0
-0.0777151 -0.313045  0
-0.065091 -0.34386  0
0.0320629 -0.284776  0
0.111679 -0.122293  0
0.106212 -0.110223  0
0.0591414 -0.110223  0
0 0  0
0 0  0
0 0  0
0 0  0
0 0  0
0 0  0
0 0  0
0 0  0
0 0  0
0 0  0
0 0  0
-0.0784862 -0.0972264  0
-0.160795 -0.0972264  0
-0.103225 -0.252184  0
-0.041832 -0.31756  0
-0.031939 -0.321559  0
-0.00469817 -0.284463  0
0.0287163 -0.233673  0
0.0493635 -0.173259  0
0.0523782 -0.12788  0
0.0510781 -0.0977913  0
0.0473682 -0.0559035  0
0.0350833 4.05513e-05  0
0.0274192 0.078548  0
0.0140322 0.186814  0
-0.051914 0.0745951  0
-0.151673 0.0759425  0
-0.230812 0.0359778  0
-0.267373 -0.0459154  0
-0.25448 -0.134666  0
-0.232162 -0.155402  0
-0.221524 -0.193703  0
-0.215043 -0.278742  0
-0.148134 -0.297648  0
-0.0640622 -0.162835  0
-0.0559955 -0.17193  0
-0.0325455 -0.17193  0
0 0  0
0 0  0
0 0  0
0 0  0
0 0  0
0 0  0
0 0  0
0 0  0
0 0  0
0 0  0
0 0  0
0 0  0
0 0  0
0 0  0
0 0  0
0 0  0
-0.020916 -0.15878  0
-0.0348864 -0.15878  0
-0.00765846 -0.31706  0
0.0126239 -0.302668  0
0.0308833 -0.269713  0
0.0636609 -0.194071  0
0.0897042 -0.139552  0
0.116439 -0.114978  0
0.129341 -0.0513294  0
0.0713341 0.0631954  0
0.00176642 0.0909161  0
-0.00605069 0.193941  0
-0.0797719 0.205423  0
-0.208892 0.172281  0
-0.280065 0.0882422  0
-0.302743 -0.0406499  0
-0.303596 -0.15368  0
-0.245488 -0.15662  0
-0.161933 -0.100092  0
-0.175765 -0.139371  0
-0.107522 -0.139371  0
0 0  0
0 0  0
0 0  0
0 0  0
0 0  0
0 0  0
0 0  0
0 0  0
0 0  0
0 0  0
0 0  0
0 0  0
0 0  0
0 0  0
0 0  0
0 0  0
0 0  0
0 0  0
0 0  0
0 0  0
0 0  0
0.00631197 -0.151334  0
0.0352739 -0.295749  0
0.057924 -0.288829  0
0.0758848 -0.228264  0
0.116035 -0.174979  0
0.160194 -0.153869  0
0.182164 -0.049876  0
0.105955 0.0345097  0
-0.032731 0.0523919  0
-0.0476038 0.093945  0
-0.0479894 0.142597  0
-0.121328 0.110815  0
-0.149352 0.0550335  0
-0.17087 -0.0198985  0
-0.246655 -0.0768398  0
-0.151798 -0.0768398  0
0 0  0
0 0  0
0 0  0
0 0  0
0 0  0
0 0  0
0 0  0
0 0  0
0 0  0
0 0  0
0 0  0
0 0  0
0 0  0
0 0  0
0 0  0
0 0  0
0 0  0
0 0  0
0 0  0
0 0  0
0 0  0
0 0  0
0 0  0
0 0  0
0 0  0
0.028962 -0.144415  0
0.0844194 -0.267955  0
0.110915 -0.247081  0
0.122763 -0.209872  0
0.134611 -0.176694  0
0.158388 -0.113285  0
0.0910822 -0.024938  0
0 0  0
0 0  0
0 0  0
0 0  0
0 0  0
0 0  0
0 0  0
0 0  0
0 0  0
0 0  0
0 0  0
0 0  0
0 0  0
0 0  0
0 0  0
0 0  0
0 0  0
0 0  0
0 0  0
0 0  0
0 0  0
0 0  0
0 0  0
0 0  0
0 0  0
0 0  0
0 0  0
0 0  0
0 0  0
0 0  0
0 0  0
0 0  0
0 0  0
0 0  0
0.0554575 -0.123541  0
0.0982343 -0.123541  0
0.0875695 -0.11086  0
0.112098 -0.0883472  0
0.0673055 -0.0883472  0
0 0  0
0 0  0
0 0  0
0 0  0
0 0  0
0 0  0
0 0  0
0 0  0
0 0  0
0 0  0
0 0  0
0 0  0
0 0  0
0 0  0
0 0  0
0 0  0
0 0  0
0 0  0
0 0  0
0 0  0
0 0  0
0 0  0
0 0  0
0 0  0
0 0  0
0 0  0
0 0  0
0 0  0
0 0  0
0 0  0
0 0  0
0 0  0
0 0  0
0 0  0
0 0  0
0 0  0
0 0  0
0 0  0
0 0  0
0 0  0
0 0  0
0 0  0
0 0  0
0 0  0
0 0  0
0 0  0
0 0  0
0 0  0
0 0  0
0 0  0
0 0  0
0 0  0
0 0  0
0 0  0
0 0  0
0 0  0
0 0  0
0 0  0
0 0  0
0 0  0
0 0  0
0 0  0
0 0  0
0 0  0
0 0  0
0 0  0
0 0  0
0 0  0
0 0  0
0 0  0
0 0  0
0 0  0
0 0  0
0 0  0
0 0  0
0 0  0
0 0  0
0 0  0
0 0  0
0 0  0
0 0  0
0 0  0
0 0  0
0 0  0
0 0  0
0 0  0
0 0  0
0 0  0
0 0  0
0 0  0
0 0  0
0 0  0
0 0  0
0 0  0
0 0  0
0 0  0
0 0  0
0 0  0
0 0  0
0 0  0
0 0  0
0 0  0
0 0  0
0 0  0
0 0  0
0 0  0
0 0  0
0 0  0
0 0  0
0 0  0
0 0  0
0 0  0
0 0  0
0 0  0
0 0  0
0 0  0
0 0  0
0 0  0
0 0  0
0 0  0
0 0  0
0 0  0
0 0  0
0 0  0
0 0  0
0 0  0
0 0  0
0 0  0
0 0  0
0 0  0
0 0  0
0 0  0
0 0  0
0 0  0
0 0  0
0 0  0
0 0  0
0 0  0
0 0  0
0 0  0
0 0  0
0 0  0
0 0  0
0 0  0
0 0  0
0 0  0
0 0  0
0 0  0
0 0  0
0 0  0
0 0  0
0 0  0
0 0  0
0 0  0
0 0  0
0 0  0
0 0  0
0 0  0
0 0  0
0 0  0
0 0  0
0 0  0
0 0  0
0 0  0
0 0  0
0 0  0
0 0  0
0 0  0
0 0  0
0 0  0
0 0  0
0 0  0
0 0  0
0 0  0
0 0  0
0 0  0
0 0  0
0 0  0
0 0  0
0 0  0
0 0  0
0 0  0
0 0  0
0 0  0
0 0  0
0 0  0
0 0  0
0 0  0
0 0  0
0 0  0
0 0  0
0 0  0
0 0  0
0 0  0
0 0  0
0 0  0
0 0  0
0 0  0
0 0  0
0 0  0
0 0  0
0 0  0
0 0  0
0 0  0
0 0  0
0 0  0
0 0  0
0 0  0
0 0  0
0 0  0
0 0  0
0 0  0
0 0  0
0 0  0
0 0  0
0 0  0
0 0  0
0 0  0
0 0  0
0 0  0
0 0  0
0 0  0
0 0  0
0 0  0
0 0  0
0 0  0
0 0  0
0 0  0
0 0  0
0 0  0
0 0  0
0 0  0
0 0  0
0 0  0
0 0  0
0 0  0
0 0  0
0 0  0
0 0  0
0 0  0
0 0  0
0 0  0
0 0  0
0 0  0
0 0  0
0 0  0
0 0  0
0 0  0
0 0  0
0 0  0
0 0  0
0 0  0
0 0  0
0 0  0
0 0  0
0 0  0
0 0  0
0 0  0
0 0  0
0 0  0
0 0  0
0 0  0
0 0  0
0 0  0
0 0  0
0 0  0
0 0  0
0 0  0
0 0  0
0 0  0
0 0  0
0 0  0
0 0  0
0 0  0
0 0  0
0 0  0
0 0  0
0 0  0
0 0  0
0 0  0
0 0  0
0 0  0
0 0  0
0 0  0
0 0  0
0 0  0
0 0  0
0 0  0
0 0  0
0 0  0
0 0  0
0 0  0
0 0  0
0 0  0
0 0  0
0 0  0
0 0  0
0 0  0
0 0  0
0 0  0
0 0  0
0 0  0
0 0  0
0 0  0
0 0  0
0 0  0
0 0  0
0 0  0
0 0  0
0 0  0
0 0  0
0 0  0
0 0  0
0 0  0
0 0  0
0 0  0
0 0  0
0 0  0
0 0  0
0 0  0
0 0  0
0 0  0
0 0  0
0 0  0
0 0  0
0 0  0
0 0  0
0 0  0
0 0  0
0 0  0
0 0  0
0 0  0
0 0  0
0 0  0
0 0  0
0 0  0
0 0  0
0 0  0
0 0  0
0 0  0
0 0  0
0 0  0
0 0  0
0 0  0
0 0  0
0 0  0
0 0  0
0 0  0
0 0  0
0 0  0
0 0  0
0 0  0
0 0  0
0 0  0
0 0  0
0 0  0
0 0  0
0 0  0
0 0  0
0 0  0
0 0  0
0 0  0
0 0  0
0 0  0
0 0  0
0 0  0
0 0  0
0 0  0
0 0  0
0 0  0
0 0  0
0 0  0
0 0  0
0 0  0
0 0  0
0 0  0
0 0  0
0 0  0
0 0  0
0 0  0
0 0  0
0 0  0
0 0  0
0 0  0
0 0  0
0 0  0
0 0  0
0 0  0
0 0  0
0 0  0
0 0  0
0 0  0
0 0  0
0 0  0
0 0  0
0 0  0
0 0  0
0 0  0
0 0  0
0 0  0
0 0  0
0 0  0
0 0  0
0 0  0
0 0  0
0 0  0
0 0  0
0 0  0
0 0  0
0 0  0
0 0  0
0 0  0
0 0  0
0 0  0
0 0  0
0 0  0
0 0  0
0 0  0
0 0  0
0 0  0
0 0  0
0 0  0
0 0  0
0 0  0
0 0  0
0 0  0
0 0  0
0 0  0
0 0  0
0 0  0
0 0  0
0 0  0
0 0  0
0 0  0
0 0  0
0 0  0
0 0  0
0 0  0
0 0  0
0 0  0
0 0  0
0 0  0
0 0  0

SCALARS pressure double 1
LOOKUP_TABLE default
3.01169
3.00908
3.00403
2.99667
2.98716
2.97568
2.96249
2.94788
2.93219
2.91578
2.89906
2.88244
2.86635
2.8512
2.83738
2.82524
2.81507
2.80712
2.80153
2.79843
2.79783
2.79972
2.80403
2.81063
2.81937
2.83003
2.84234
2.85599
2.87061
2.88578
2.90107
2.91606
2.93034
2.94356
2.95539
2.96559
2.97399
2.98048
2.98499
2.98736
2.81215
2.80948
2.80433
2.79683
2.78712
2.7754
2.76193
2.747
2.73096
2.71418
2.69706
2.68004
2.66355
2.64803
2.63386
2.62141
2.611
2.60286
2.59716
2.594
2.59342
2.59539
2.59982
2.60661
2.61558
2.62652
2.63917
2.6532
2.66823
2.68381
2.69951
2.71488
2.7295
2.74301
2.75509
2.76548
2.77403
2.78063
2.7852
2.78761
2.61328
2.61051
2.60517
2.59736
2.58725
2.57505
2.56101
2.54543
2.52867
2.51112
2.49321
2.47537
2.45808
2.44178
2.4269
2.41384
2.40292
2.3944
2.38846
2.38521
2.38466
2.38678
2.39147
2.39862
2.40806
2.41957
2.4329
2.44771
2.46357
2.48
2.49654
2.51268
2.528
2.54211
2.55468
2.56546
2.5743
2.5811
2.5858
2.58826
2.41522
2.4123
2.40665
2.39838
2.38767
2.37472
2.3598
2.34324
2.32539
2.30667
2.28752
2.26842
2.24988
2.23238
2.21641
2.20239
2.19069
2.18159
2.1753
2.1719
2.17143
2.17379
2.17887
2.18656
2.19668
2.20906
2.22344
2.23945
2.2566
2.27437
2.2922
2.30955
2.32594
2.34096
2.35428
2.36564
2.3749
2.38199
2.38686
2.3894
2.21813
2.21501
2.20893
2.20004
2.1885
2.17453
2.15843
2.14051
2.12116
2.10083
2.07999
2.05915
2.03888
2.01972
2.00221
1.98686
1.97408
1.96418
1.9574
1.95385
1.9535
1.95622
1.96184
1.97022
1.98123
1.99478
2.0106
2.02829
2.04726
2.0669
2.08655
2.10559
2.12346
2.13973
2.15404
2.16617
2.17597
2.18342
2.18851
2.19114
2.02224
2.01885
2.01223
2.00253
1.98993
1.97465
1.95701
1.93735
1.91608
1.89366
1.8706
1.84749
1.82494
1.80358
1.78404
1.76693
1.75274
1.7418
1.73439
1.73067
1.7306
1.73385
1.74013
1.7493
1.76139
1.7764
1.79409
1.814
1.83543
1.85759
1.87968
1.90095
1.92077
1.93862
1.9542
1.96725
1.9777
1.98555
1.99086
1.99359
1.82784
1.82411
1.81682
1.80612
1.79219
1.77529
1.75575
1.73392
1.71024
1.6852
1.65936
1.63336
1.60788
1.58368
1.56152
1.54216
1.52617
1.5139
1.50567
1.5018
1.50231
1.5064
1.51345
1.52342
1.53667
1.55337
1.57341
1.59626
1.62094
1.64643
1.67171
1.69586
1.71814
1.73797
1.75505
1.76916
1.78028
1.78853
1.79403
1.79682
1.63529
1.63115
1.62304
1.61111
1.59558
1.57671
1.55485
1.53039
1.50378
1.47553
1.44624
1.41661
1.38744
1.35959
1.33404
1.31186
1.29367
1.27968
1.27026
1.2662
1.26809
1.27363
1.28141
1.29201
1.30628
1.32484
1.3478
1.3745
1.40351
1.4334
1.46282
1.49063
1.51597
1.5382
1.557
1.57223
1.58398
1.5925
1.59808
1.60088
1.44502
1.4404
1.43131
1.41792
1.40045
1.37922
1.35458
1.32696
1.29682
1.2647
1.23119
1.19703
1.1632
1.1306
1.10056
1.07487
1.05416
1.03794
1.02637
1.02143
1.02695
1.03516
1.04358
1.0542
1.06895
1.08933
1.1159
1.14782
1.1827
1.21846
1.25325
1.2857
1.31481
1.33987
1.36058
1.37689
1.38906
1.3976
1.40304
1.40572
1.25757
1.25238
1.24213
1.227
1.20722
1.18316
1.15523
1.12385
1.08953
1.05279
1.01409
0.97425
0.934525
0.895477
0.858909
0.829093
0.805849
0.786826
0.770627
0.760404
0.77675
0.79025
0.798908
0.808328
0.82249
0.844236
0.875201
0.914664
0.957808
1.00156
1.04336
1.08167
1.11541
1.14381
1.16658
1.18374
1.19588
1.20392
1.20883
1.21119
1.07354
1.06769
1.05611
1.03892
1.01636
0.988909
0.957085
0.92126
0.88195
0.839822
0.794765
0.747475
0.700605
0.652417
0.604694
0.570865
0.546099
0.524268
0.497883
0.460027
0.513118
0.536568
0.5444
0.55144
0.563738
0.58537
0.620724
0.672582
0.727721
0.782648
0.833647
0.879371
0.918838
0.95119
0.976098
0.993688
1.00497
1.0116
1.01525
1.01693
0.89363
0.887044
0.873935
0.854284
0.828307
0.796706
0.76034
0.719197
0.67378
0.625805
0.57293
0.514984
0.461402
0.400461
0.32961
0.296576
0.274373
0.252102
0.210548
0.0402746
0.239558
0.268637
0.274413
0.280971
0.290747
0.307502
0.342008
0.419015
0.491252
0.561855
0.624708
0.679904
0.726621
0.763779
0.790868
0.80815
0.817217
0.820794
0.821921
0.822266
0.718527
0.711099
0.696246
0.673592
0.643145
0.606258
0.565043
0.517324
0.463122
0.410826
0.349088
0.27197
0.221598
0.149262
0.0117106
0.0105449
0.00273542
0.000278634
0.0282919
0
0.0767251
0.00158847
0.00400847
0.00511442
0.00788705
0.00836673
0.0125317
0.158922
0.248898
0.340456
0.41697
0.484565
0.540901
0.584185
0.613446
0.629291
0.633883
0.631454
0.627911
0.625908
0.548565
0.54008
0.523265
0.496972
0.460246
0.415506
0.370595
0.315249
0.243379
0.196839
0.131192
-0.00154101
-0.00190278
-0.0187184
0
0
0
0
0
0
0
0
0
0
0
0
0
-0.0376669
0.000364814
0.12507
0.20954
0.294801
0.364862
0.41586
0.447259
0.459955
0.456224
0.442024
0.430691
0.425212
0.382305
0.372222
0.353605
0.324061
0.278894
0.218678
0.178313
0.118807
-0.0105786
-0.00601764
-0.0204179
0
0
0
0
0
0
0
0
0
0
0
0
0
0
0
0
0
0
-0.0488895
-0.00585374
0.114514
0.203523
0.263568
0.296667
0.304
0.285782
0.246817
0.22522
0.215984
0.216989
0.204435
0.184743
0.156066
0.10446
-0.00311776
-0.00290373
-0.0184336
0
0
0
0
0
0
0
0
0
0
0
0
0
0
0
0
0
0
0
0
0
0
0
-0.0372901
0.0667397
0.134203
0.167626
0.168012
0.128402
0.0272426
0.00664779
-0.00323411
0.0401431
0.024755
0.0110074
0.000570883
-0.0201309
0
0
0
0
0
0
0
0
0
0
0
0
0
0
0
0
0
0
0
0
0
0
0
0
0
0
0
-0.0364744
0.0339874
0.0663242
0.064351
0.0197582
0
0
0
0
0
0
0
0
0
0
0
0
0
0
0
0
0
0
0
0
0
0
0
0
0
0
0
0
0
0
0
0
0
0
0
0
-0.0329348
-0.0057936
0.00102691
0
0
0
0
0
0
0
0
0
0
0
0
0
0
0
0
0
0
0
0
0
0
0
0
0
0
0
0
0
0
0
0
0
0
0
0
0
0
0
0
0
0
0
0
0
0
0
0
0
0
0
0
0
0
0
0
0
0
0
0
0
0
0
0
0
0
0
0
0
0
0
0
0
0
0
0
0
0
0
0
0
0
0
0
0
0
0
0
0
0
0
0
0
0
0
0
0
0
0
0
0
0
0
0
0
0
0
0
0
0
0
0
0
0
0
0
0
0
0
0
0
0
0
0
0
0
0
0
0
0
0
0
0
0
0
0
0
0
0
0
0
0
0
0
0
0
0
0
0
0
0
0
0
0
0
0
0
0
0
0
0
0
0
0
0
0
0
0
0
0
0
0
0
0
0
0
0
0
0
0
0
0
0
0
0
0
0
0
0
0
0
0
0
0
0
0
0
0
0
0
0
0
0
0
0
0
0
0
0
0
0
0
0
0
0
0
0
0
0
0
0
0
0
0
0
0
0
0
0
0
0
0
0
0
0
0
0
0
0
0
0
0
0
0
0
0
0
0
0
0
0
0
0
0
0
0
0
0
0
0
0
0
0
0
0
0
0
0
0
0
0
0
0
0
0
0
0
0
0
0
0
0
0
0
0
0
0
0
0
0
0
0
0
0
0
0
0
0
0
0
0
0
0
0
0
0
0
0
0
0
0
0
0
0
0
0
0
0
0
0
0
0
0
0
0
0
0
0
0
0
0
0
0
0
0
0
0
0
0
0
0
0
0
0
0
0
0
0
0
0
0
0
0
0
0
0
0
0
0
0
0
0
0
0
0
0
0
0
0
0
0
0
0
0
0
0
0
0
0
0
0
0
0
0
0
0
0
0
0
0
0
0
0
0
0
0
0
0
0
0
0
0
0
0
0
0
0
0
0
0
0
0
0
0
0
0
0
0
0
0
0
0
0
0
0
0
0
0
0
0
0
0
0
0
0
0
0
0
0
0
0
0
0
0
0
0
0
0
0
0
0
0
0
0
0
0
0
0
0
0
0
0
0
0
0
0
0
0
0
0
0
0
0
0
0
0
0
0
0
0
0
0
0
0
SCALARS rhs double 1
LOOKUP_TABLE default
-5.18808
-5.12406
-5.12159
-5.11953
-5.11747
-5.11538
-5.11324
-5.11104
-5.10881
-5.10658
-5.10442
-5.10241
-5.10066
-5.09927
-5.09826
-5.09764
-5.09735
-5.09732
-5.09746
-5.09766
-5.09787
-5.09802
-5.09811
-5.09816
-5.0984
-5.09848
-5.09871
-5.09939
-5.10032
-5.10148
-5.10278
-5.10392
-5.10519
-5.10632
-5.10695
-5.10682
-5.10592
-5.10562
-5.10785
-5.11277
-0.122016
-0.0616876
-0.0608311
-0.0603617
-0.0598706
-0.0593349
-0.0587328
-0.0580498
-0.0572871
-0.0564688
-0.055645
-0.0548883
-0.0542813
-0.0538978
-0.0537094
-0.0538424
-0.0542168
-0.0547271
-0.0552685
-0.055736
-0.0560445
-0.0561479
-0.0560473
-0.0557898
-0.055756
-0.0551109
-0.054878
-0.0550459
-0.055372
-0.0558755
-0.0564979
-0.056997
-0.0574857
-0.0580879
-0.0581719
-0.0576394
-0.0565049
-0.0560352
-0.0583583
-0.0636407
-0.117716
-0.0600133
-0.0592342
-0.0588376
-0.058429
-0.0579823
-0.0574708
-0.0568745
-0.0561891
-0.0554347
-0.0546598
-0.0539379
-0.0533546
-0.052988
-0.0527417
-0.0528708
-0.0532535
-0.0537709
-0.0543205
-0.054797
-0.0551137
-0.055225
-0.0551333
-0.0549723
-0.0550317
-0.0541081
-0.0539727
-0.054207
-0.0545401
-0.0550266
-0.0556183
-0.0561759
-0.056295
-0.0569876
-0.0569253
-0.056228
-0.0549517
-0.0543676
-0.0565712
-0.0616295
-0.113238
-0.058585
-0.0578935
-0.0575863
-0.0572863
-0.0569629
-0.0565824
-0.0561161
-0.0555513
-0.0549011
-0.0542098
-0.0535513
-0.0530151
-0.0526846
-0.0523553
-0.0524837
-0.0528796
-0.0534081
-0.0539726
-0.0544656
-0.054794
-0.054914
-0.0548347
-0.0553011
-0.0544385
-0.0538348
-0.0536875
-0.0540086
-0.0543345
-0.0547728
-0.0552945
-0.0557954
-0.0557245
-0.0561471
-0.0560334
-0.0551512
-0.0537655
-0.0530939
-0.0551595
-0.0599476
-0.108246
-0.057029
-0.0564458
-0.0562589
-0.0561123
-0.0559705
-0.0557905
-0.0555319
-0.055169
-0.0547031
-0.0541718
-0.0536478
-0.0532253
-0.0529922
-0.052555
-0.0526981
-0.053132
-0.0536918
-0.0542954
-0.0548251
-0.0551621
-0.0552707
-0.055399
-0.0562784
-0.0545057
-0.0542108
-0.0540279
-0.054469
-0.0547373
-0.0550518
-0.0554196
-0.0557321
-0.0556504
-0.055274
-0.0552976
-0.0542329
-0.0528108
-0.0521158
-0.0540171
-0.0584781
-0.102785
-0.0553368
-0.0548836
-0.0548544
-0.0549207
-0.0550422
-0.0551655
-0.0552352
-0.0552076
-0.0550672
-0.0548419
-0.0546055
-0.054461
-0.0544983
-0.0539602
-0.054168
-0.0547488
-0.0554323
-0.0561708
-0.0568159
-0.0571349
-0.0571197
-0.05877
-0.0572154
-0.0561545
-0.0558225
-0.055545
-0.056178
-0.0562354
-0.0562526
-0.0562926
-0.0562529
-0.0560268
-0.0546579
-0.0548392
-0.0536134
-0.0522553
-0.0516259
-0.0533231
-0.0573839
-0.0969055
-0.0534996
-0.053197
-0.0533722
-0.0537327
-0.0542355
-0.0548171
-0.0554061
-0.0559375
-0.0563771
-0.0567513
-0.0571565
-0.057728
-0.058541
-0.0581027
-0.0585155
-0.0597053
-0.0609054
-0.0621796
-0.063329
-0.0635712
-0.0640639
-0.0653769
-0.0610621
-0.0603831
-0.0599045
-0.0594036
-0.0604454
-0.0598154
-0.0591104
-0.0584349
-0.0577198
-0.0568767
-0.0549755
-0.0545295
-0.0534373
-0.0522246
-0.0517433
-0.0531952
-0.0567933
-0.0906714
-0.0515158
-0.0513826
-0.0518256
-0.0525992
-0.0536586
-0.0549329
-0.0563433
-0.0578128
-0.0593098
-0.0609123
-0.0628191
-0.0652892
-0.0682968
-0.0690533
-0.0698099
-0.073412
-0.0766005
-0.0800773
-0.0836862
-0.0840784
-0.090039
-0.0773643
-0.0725363
-0.0700079
-0.0689992
-0.068145
-0.0704445
-0.067628
-0.0651194
-0.0627906
-0.060702
-0.0587692
-0.055924
-0.0547487
-0.053735
-0.0525995
-0.0522813
-0.0535279
-0.0567303
-0.0841642
-0.0494053
-0.0494747
-0.0503003
-0.0516862
-0.053571
-0.0558861
-0.0585897
-0.0616481
-0.0651297
-0.0693272
-0.0746685
-0.0819102
-0.09067
-0.0972231
-0.096539
-0.108753
-0.118927
-0.13193
-0.146208
-0.160487
-0.157172
-0.117803
-0.10057
-0.0897424
-0.0871982
-0.0894527
-0.0910881
-0.0842914
-0.0774164
-0.0711068
-0.0660229
-0.0620351
-0.0574483
-0.0554575
-0.0540606
-0.0524843
-0.0521978
-0.0536105
-0.0569156
-0.0774955
-0.0472625
-0.0476855
-0.0492052
-0.0516181
-0.0547829
-0.0586657
-0.0634294
-0.0692449
-0.0764909
-0.0859496
-0.0975032
-0.114657
-0.136624
-0.145033
-0.146624
-0.180057
-0.215054
-0.274806
-0.318729
-0.406931
-0.340716
-0.227447
-0.157487
-0.118638
-0.115072
-0.133517
-0.133318
-0.117266
-0.102041
-0.0865802
-0.0747182
-0.0666395
-0.0589061
-0.0559579
-0.0528728
-0.0494488
-0.0489057
-0.051676
-0.0565156
-0.0709606
-0.0456942
-0.0473127
-0.050285
-0.0540822
-0.0599813
-0.0664066
-0.0748578
-0.0858602
-0.0996897