# vtk DataFile Version 4.0
Nusif Fluid VTK output
ASCII
DATASET STRUCTURED_POINTS
DIMENSIONS 40 30 1
ORIGIN 0 0 0 
SPACING 0.2 0.2 1
POINT_DATA 1200 

VECTORS velocity double
-0.00607071 0.00651836  0
-0.0181148 0.0063623  0
-0.0297513 0.00605054  0
-0.0406144 0.00558623  0
-0.0504106 0.00498111  0
-0.05888 0.0042573  0
-0.0658158 0.00344547  0
-0.0710767 0.00258061  0
-0.0745909 0.00169715  0
-0.0763508 0.000824855  0
-0.0764013 -1.35989e-05  0
-0.0748245 -0.000803653  0
-0.0717243 -0.00153811  0
-0.0672138 -0.00221481  0
-0.0614089 -0.00283343  0
-0.0544275 -0.00339205  0
-0.0463959 -0.00388444  0
-0.0374578 -0.00429905  0
-0.0277841 -0.00462056  0
-0.0175762 -0.00483383  0
-0.00706004 -0.00492919  0
0.00352864 -0.0049067  0
0.0139669 -0.00477913  0
0.0240647 -0.00456641  0
0.0336714 -0.00428828  0
0.0426708 -0.0039592  0
0.050967 -0.00358525  0
0.0584675 -0.00316364  0
0.0650664 -0.00268355  0
0.0706282 -0.00212669  0
0.0749743 -0.00146777  0
0.0778684 -0.000674695  0
0.0790051 0.000289694  0
0.0780055 0.00146157  0
0.0744334 0.00286221  0
0.0678503 0.00447269  0
0.0579246 0.00620478  0
0.0445893 0.00788225  0
0.0282065 0.00925237  0
0.00966501 0.0100409  0
-0.00623815 0.0196622  0
-0.0186135 0.0191937  0
-0.030571 0.0182529  0
-0.0417332 0.0168459  0
-0.0517889 0.0150069  0
-0.0604612 0.0128043  0
-0.0675319 0.0103338  0
-0.072857 0.00770493  0
-0.0763701 0.0050248  0
-0.078075 0.00238501  0
-0.0780312 -0.000145672  0
-0.0763353 -0.00252428  0
-0.0731032 -0.00473114  0
-0.0684556 -0.00676217  0
-0.0625112 -0.00861884  0
-0.0553863 -0.0102972  0
-0.0472031 -0.0117793  0
-0.0381015 -0.0130297  0
-0.0282515 -0.0140002  0
-0.017858 -0.0146428  0
-0.00715559 -0.0149264  0
0.00360889 -0.0148507  0
0.0142037 -0.0144566  0
0.0244358 -0.0138075  0
0.0341585 -0.0129655  0
0.0432632 -0.0119751  0
0.0516623 -0.0108539  0
0.0592693 -0.00959186  0
0.0659798 -0.00815388  0
0.0716548 -0.00648255  0
0.0761071 -0.00449951  0
0.0790871 -0.00210635  0
0.0802732 0.000809364  0
0.0792702 0.00435533  0
0.0756297 0.00859179  0
0.0689107 0.0134562  0
0.058791 0.0186777  0
0.0452224 0.0237241  0
0.0285882 0.0278384  0
0.00979204 0.0302034  0
-0.00658422 0.0332556  0
-0.0196465 0.0324714  0
-0.0322717 0.0308822  0
-0.0440555 0.028486  0
-0.0546467 0.0253363  0
-0.0637319 0.0215541  0
-0.0710696 0.0173134  0
-0.0765113 0.0128125  0
-0.0800038 0.00824278  0
-0.0815769 0.00376451  0
-0.0813214 -0.000505418  0
-0.0793652 -0.00449809  0
-0.0758493 -0.00818711  0
-0.0709113 -0.0115739  0
-0.0646761 -0.0146691  0
-0.0572581 -0.0174726  0
-0.0487717 -0.0199566  0
-0.0393493 -0.0220596  0
-0.0291583 -0.0236946  0
-0.0184103 -0.0247733  0
-0.00735467 -0.0252375  0
0.00374241 -0.0250849  0
0.0146337 -0.0243924  0
0.0251232 -0.0232773  0
0.0350727 -0.021852  0
0.0443888 -0.0201935  0
0.0529995 -0.0183293  0
0.0608286 -0.0162365  0
0.0677731 -0.0138482  0
0.0736858 -0.01106  0
0.078361 -0.00773345  0
0.0815227 -0.00369809  0
0.0828174 0.0012363  0
0.0818188 0.0072462  0
0.0780554 0.0144208  0
0.0710798 0.0226379  0
0.0605841 0.0314275  0
0.0465514 0.0398918  0
0.0294008 0.0467716  0
0.0100649 0.0507185  0
-0.00714076 0.0477435  0
-0.0213096 0.0466373  0
-0.0350119 0.0443628  0
-0.047793 0.0408884  0
-0.059233 0.0362827  0
-0.0689561 0.0307329  0
-0.0766843 0.0245168  0
-0.0822666 0.0179487  0
-0.0856771 0.0113249  0
-0.0869922 0.00488524  0
-0.0863564 -0.00120316  0
-0.0839487 -0.00685045  0
-0.0799522 -0.0120336  0
-0.0745322 -0.0167721  0
-0.0678268 -0.0210985  0
-0.0599493 -0.025026  0
-0.0510053 -0.0285212  0
-0.0411169 -0.0314935  0
-0.0304475 -0.0338089  0
-0.0192144 -0.0353283  0
-0.00768248 -0.0359584  0
0.0038612 -0.0356931  0
0.0151545 -0.0346572  0
0.0260022 -0.0330382  0
0.0362817 -0.0310086  0
0.0459213 -0.0286811  0
0.0548684 -0.0260882  0
0.0630572 -0.0231842  0
0.070382 -0.0198584  0
0.0766786 -0.0159476  0
0.0817115 -0.0112424  0
0.0851647 -0.00549249  0
0.0866386 0.00157355  0
0.0856615 0.0101963  0
0.0817285 0.0204787  0
0.0743815 0.0322143  0
0.063331 0.0447089  0
0.0486014 0.0566843  0
0.0306624 0.0663803  0
0.0104903 0.0719295  0
-0.00797315 0.0636112  0
-0.023798 0.062174  0
-0.0391075 0.0591512  0
-0.0533602 0.0544465  0
-0.066024 0.0481405  0
-0.0766286 0.0405142  0
-0.0848478 0.0319938  0
-0.0905383 0.0230547  0
-0.0937281 0.0141291  0
-0.0945722 0.00554961  0
-0.0932993 -0.00246717  0
-0.0901647 -0.00981997  0
-0.085413 -0.0165038  0
-0.079253 -0.0225736  0
-0.0718463 -0.0281012  0
-0.063312 -0.0331273  0
-0.0537491 -0.0376193  0
-0.0432698 -0.0414558  0
-0.0320307 -0.0444481  0
-0.0202486 -0.0463974  0
-0.00819332 -0.0471696  0
0.00384 -0.0467522  0
0.0155868 -0.0453317  0
0.0268643 -0.0431825  0
0.0375733 -0.0405464  0
0.0476672 -0.0375704  0
0.0571102 -0.0342826  0
0.0658383 -0.0306003  0
0.0737304 -0.0263527  0
0.0805901 -0.0213031  0
0.0861373 -0.0151605  0
0.0900034 -0.00758705  0
0.0917314 0.00177286  0
0.0907943 0.0132179  0
0.0866461 0.0268451  0
0.0788152 0.0423325  0
0.0670336 0.0587294  0
0.0513768 0.074357  0
0.0323771 0.086953  0
0.0110698 0.0941429  0
-0.00920681 0.0815348  0
-0.027481 0.079747  0
-0.045144 0.0758581  0
-0.0615044 0.0696593  0
-0.0758582 0.0612515  0
-0.087604 0.0510592  0
-0.0963626 0.0397318  0
-0.102028 0.0279773  0
-0.104732 0.0164049  0
-0.104759 0.00544918  0
-0.102462 -0.00463356  0
-0.0981989 -0.0137478  0
-0.0922995 -0.021924  0
-0.0850374 -0.0292725  0
-0.076617 -0.0359268  0
-0.0671771 -0.0419735  0
-0.0568188 -0.047392  0
-0.0456478 -0.0520314  0
-0.0338097 -0.0556477  0
-0.0215048 -0.0579831  0
-0.00897899 -0.0588634  0
0.00349861 -0.058268  0
0.0156899 -0.0564527  0
0.0274439 -0.0537917  0
0.0386948 -0.0505961  0
0.0494178 -0.0470364  0
0.0595796 -0.0431201  0
0.0690969 -0.038707  0
0.0778067 -0.0335465  0
0.085454 -0.0273149  0
0.091693 -0.0196336  0
0.0960917 -0.0100771  0
0.0981333 0.00179485  0
0.0972356 0.0163323  0
0.0928112 0.0336049  0
0.0843762 0.0531402  0
0.0716878 0.0736932  0
0.0548774 0.0931621  0
0.034548 0.108779  0
0.0118053 0.117669  0
-0.011067 0.102541  0
-0.033013 0.100344  0
-0.0541351 0.0953474  0
-0.0734878 0.0871838  0
-0.0901213 0.0760145  0
-0.10327 0.0624903  0
-0.112516 0.0476042  0
-0.117856 0.0324095  0
-0.119621 0.0177402  0
-0.118302 0.00412048  0
-0.114419 -0.00818682  0
-0.108459 -0.01912  0
-0.100858 -0.0287551  0
-0.0919868 -0.037277  0
-0.0821254 -0.044907  0
-0.0714558 -0.0518059  0
-0.0600938 -0.0579832  0
-0.0481428 -0.0632656  0
-0.03573 -0.0673678  0
-0.0230087 -0.069993  0
-0.0101495 -0.0709424  0
0.00266155 -0.0701816  0
0.0152546 -0.0680275  0
0.0275374 -0.0649579  0
0.0394897 -0.0613374  0
0.0510986 -0.0573312  0
0.0623063 -0.052899  0
0.072973 -0.0478164  0
0.0828486 -0.0417266  0
0.0915719 -0.0342093  0
0.0986977 -0.0248079  0
0.103722 -0.0130297  0
0.106084 0.00164021  0
0.105166 0.0195985  0
0.100355 0.0408706  0
0.0911608 0.0648002  0
0.077369 0.0898098  0
0.0591661 0.113355  0
0.037221 0.132156  0
0.0127144 0.142837  0
-0.0139255 0.128255  0
-0.041458 0.125477  0
-0.0676941 0.118867  0
-0.0912779 0.107895  0
-0.110938 0.0928904  0
-0.125725 0.0748435  0
-0.135225 0.0552905  0
-0.139682 0.0358137  0
-0.1398 0.0175107  0
-0.136392 0.000915238  0
-0.130168 -0.0137958  0
-0.121735 -0.0266119  0
-0.111669 -0.0376394  0
-0.100492 -0.0471484  0
-0.0886136 -0.0554842  0
-0.0762895 -0.0629311  0
-0.0636529 -0.0695655  0
-0.0508006 -0.0751956  0
-0.0378303 -0.07953  0
-0.0248062 -0.0822856  0
-0.0117477 -0.083277  0
0.00131031 -0.0824257  0
0.0143045 -0.0800803  0
0.027232 -0.0768253  0
0.0401421 -0.0730424  0
0.0530256 -0.0688285  0
0.0657633 -0.064057  0
0.0781104 -0.058382  0
0.0896594 -0.0512952  0
0.099858 -0.0422722  0
0.108094 -0.0308167  0
0.113783 -0.0164436  0
0.116367 0.00139964  0
0.115254 0.02316  0
0.109838 0.048827  0
0.0996337 0.0775335  0
0.0844591 0.107334  0
0.0645451 0.135239  0
0.040601 0.157452  0
0.0138714 0.170068  0
-0.0183133 0.161202  0
-0.0543092 0.157411  0
-0.0880343 0.148182  0
-0.11754 0.132957  0
-0.141188 0.112424  0
-0.157811 0.0880074  0
-0.167066 0.0621687  0
-0.169725 0.0373389  0
-0.167191 0.0148546  0
-0.16074 -0.00500126  0
-0.151216 -0.0223411  0
-0.139279 -0.0371492  0
-0.125697 -0.0494651  0
-0.11126 -0.0596498  0
-0.0966007 -0.0682356  0
-0.0820781 -0.0757409  0
-0.0677923 -0.0823928  0
-0.0537976 -0.0879301  0
-0.0401658 -0.0921125  0
-0.0268336 -0.0947746  0
-0.0135706 -0.0958247  0
-0.000201409 -0.0950205  0
0.0133228 -0.0927195  0
0.0271258 -0.0896324  0
0.0413859 -0.0861213  0
0.0561087 -0.0820716  0
0.0710787 -0.0772372  0
0.0859064 -0.0710921  0
0.0999242 -0.0628671  0
0.112231 -0.0519209  0
0.121909 -0.0377971  0
0.128262 -0.0202201  0
0.130837 0.00130265  0
0.129194 0.0272976  0
0.122783 0.0578015  0
0.111123 0.0917093  0
0.0940802 0.12666  0
0.071909 0.159283  0
0.0452931 0.185254  0
0.0154963 0.200078  0
-0.0247876 0.204998  0
-0.0730766 0.199236  0
-0.11734 0.185627  0
-0.154961 0.163921  0
-0.183954 0.135381  0
-0.202703 0.101703  0
-0.210897 0.0672024  0
-0.21041 0.0357588  0
-0.20393 0.00870022  0
-0.193314 -0.0146338  0
-0.179277 -0.0349893  0
-0.162377 -0.0520567  0
-0.143743 -0.0654949  0
-0.12471 -0.0758093  0
-0.106305 -0.0838611  0
-0.0889848 -0.0906782  0
-0.0725954 -0.0968511  0
-0.0570333 -0.101749  0
-0.0424295 -0.10525  0
-0.0286124 -0.107507  0
-0.0149648 -0.108723  0
-0.00104802 -0.108129  0
0.0132407 -0.106145  0
0.028199 -0.103689  0
0.044278 -0.101125  0
0.061539 -0.0977733  0
0.079669 -0.093357  0
0.0981775 -0.0870297  0
0.11598 -0.0774713  0
0.131541 -0.0639053  0
0.143353 -0.0460233  0
0.150523 -0.0242368  0
0.152865 0.00168131  0
0.150279 0.0324281  0
0.142299 0.068341  0
0.128436 0.107973  0
0.108684 0.14847  0
0.0832787 0.18633  0
0.0527136 0.216668  0
0.0181202 0.234334  0
-0.0333955 0.263864  0
-0.0977625 0.254346  0
-0.155601 0.233893  0
-0.203943 0.202893  0
-0.240625 0.163358  0
-0.262523 0.115648  0
-0.268596 0.0687984  0
-0.263039 0.0293937  0
-0.250974 -0.0022053  0
-0.234855 -0.0291894  0
-0.214645 -0.0534063  0
-0.190523 -0.0733878  0
-0.1645 -0.0875476  0
-0.139111 -0.0969042  0
-0.116028 -0.102981  0
-0.0956538 -0.107978  0
-0.0769396 -0.113381  0
-0.0593452 -0.117102  0
-0.0433766 -0.119195  0
-0.0289365 -0.120546  0
-0.0148246 -0.122171  0
-0.000232387 -0.121917  0
0.0148778 -0.120483  0
0.0310343 -0.119194  0
0.0492072 -0.118601  0
0.0694548 -0.116534  0
0.0915651 -0.113564  0
0.115354 -0.107848  0
0.139006 -0.0968344  0
0.159865 -0.0796881  0
0.175368 -0.0562822  0
0.18422 -0.0287252  0
0.186675 0.00264641  0
0.183111 0.0388878  0
0.172999 0.0812471  0
0.155886 0.127317  0
0.132319 0.173719  0
0.10231 0.21777  0
0.06569 0.253687  0
0.0228905 0.275982  0
-0.0423128 0.340241  0
-0.123257 0.324584  0
-0.195881 0.295386  0
-0.257544 0.252672  0
-0.307126 0.201111  0
-0.336032 0.129967  0
-0.338215 0.0640044  0
-0.323923 0.0156063  0
-0.303784 -0.0193534  0
-0.280711 -0.0499652  0
-0.252368 -0.0799141  0
-0.217934 -0.104169  0
-0.181628 -0.117827  0
-0.148406 -0.123966  0
-0.12068 -0.125461  0
-0.0982661 -0.127017  0
-0.0779848 -0.132069  0
-0.0583892 -0.134336  0
-0.0409959 -0.134056  0
-0.0262228 -0.13363  0
-0.0121147 -0.136039  0
0.00268969 -0.136178  0
0.0181303 -0.135506  0
0.0350704 -0.136002  0
0.0551758 -0.138805  0
0.0774464 -0.137583  0
0.10292 -0.138833  0
0.133418 -0.135598  0
0.165271 -0.12332  0
0.194155 -0.101677  0
0.216027 -0.0703995  0
0.228927 -0.0350921  0
0.233552 0.003202  0
0.230534 0.0461837  0
0.218288 0.0975774  0
0.196783 0.150874  0
0.16891 0.20287  0
0.133686 0.25512  0
0.0889624 0.298949  0
0.0321216 0.331628  0
-0.0452874 0.428497  0
-0.133213 0.406484  0
-0.217004 0.371162  0
-0.292564 0.31538  0
-0.368834 0.265518  0
-0.416755 0.143648  0
-0.408061 0.0450744  0
-0.376685 -0.00987067  0
-0.34574 -0.0436972  0
-0.315679 -0.077494  0
-0.278631 -0.116513  0
-0.232392 -0.146981  0
-0.185171 -0.157279  0
-0.145227 -0.156417  0
-0.115057 -0.149644  0
-0.0931066 -0.145934  0
-0.0732889 -0.151988  0
-0.0529519 -0.153086  0
-0.0348552 -0.149532  0
-0.0203229 -0.146196  0
-0.00699747 -0.149644  0
0.00707849 -0.150192  0
0.0221444 -0.150737  0
0.0397921 -0.154097  0
0.0626147 -0.162378  0
0.0824475 -0.154855  0
0.106374 -0.169701  0
0.14392 -0.171512  0
0.184228 -0.158304  0
0.221854 -0.131939  0
0.252033 -0.0909238  0
0.27229 -0.0464626  0
0.283439 6.21203e-05  0
0.285674 0.0513707  0
0.272754 0.118818  0
0.245527 0.179629  0
0.214849 0.233928  0
0.176875 0.298523  0
0.12614 0.352268  0
0.0490858 0.413467  0
-0.0340769 0.508503  0
-0.102531 0.484128  0
-0.182715 0.45875  0
-0.256082 0.377976  0
-0.392051 0.416417  0
-0.486313 0.136188  0
-0.439336 -0.00188003  0
-0.385287 -0.0470859  0
-0.348881 -0.0725758  0
-0.316353 -0.109949  0
-0.27517 -0.161032  0
-0.224587 -0.198028  0
-0.174876 -0.201907  0
-0.13433 -0.191021  0
-0.104569 -0.173714  0
-0.0833774 -0.163749  0
-0.0649965 -0.171115  0
-0.0464432 -0.171592  0
-0.0292784 -0.165031  0
-0.0147556 -0.158496  0
-0.00174052 -0.162427  0
0.0115366 -0.163504  0
0.0266057 -0.166303  0
0.0466699 -0.174987  0
0.0786636 -0.19505  0
0.0872967 -0.149709  0
0.0983096 -0.208842  0
0.143158 -0.213505  0
0.186016 -0.198219  0
0.225675 -0.168052  0
0.260314 -0.118371  0
0.287831 -0.065532  0
0.308146 -0.0110742  0
0.320901 0.0487752  0
0.310957 0.145535  0
0.278818 0.213537  0
0.248676 0.262097  0
0.206114 0.352148  0
0.147776 0.408975  0
0.0598336 0.523015  0
-0.0179367 0.560835  0
-0.0538937 0.536839  0
-0.0988401 0.531795  0
-0.136176 0.41626  0
-0.240531 0.619084  0
-0.335091 0.12297  0
-0.33359 -0.0365134  0
-0.324776 -0.0746894  0
-0.304859 -0.100669  0
-0.273379 -0.145237  0
-0.236882 -0.202796  0
-0.202621 -0.240481  0
-0.170172 -0.240988  0
-0.138219 -0.223812  0
-0.108147 -0.20013  0
-0.0808974 -0.185147  0
-0.0599985 -0.18837  0
-0.0449545 -0.187308  0
-0.0305305 -0.180277  0
-0.0146196 -0.173056  0
0.000625239 -0.175499  0
0.014983 -0.177439  0
0.031555 -0.183381  0
0.0506108 -0.196401  0
0.0605456 -0.214938  0
0.0965091 -0.184625  0
0.132473 -0.231107  0
0.146517 -0.249503  0
0.173944 -0.231876  0
0.200724 -0.200205  0
0.228721 -0.148226  0
0.256137 -0.089982  0
0.277436 -0.0276102  0
0.287511 0.0431085  0
0.285776 0.163508  0
0.274465 0.239642  0
0.258047 0.28318  0
0.237668 0.394634  0
0.206046 0.457076  0
0.0931838 0.676347  0
-0.0059804 0.289386  0
-0.0438683 0.27743  0
-0.0347454 0.27936  0
-0.21333 0.213335  0
-0.0889887 0.356515  0
0.0407379 0.0617923  0
-0.231104 -0.0193145  0
-0.287147 -0.040694  0
-0.263804 -0.0569442  0
-0.219807 -0.0817487  0
-0.190378 -0.110516  0
-0.184431 -0.128254  0
-0.178754 -0.128706  0
-0.159588 -0.119671  0
-0.128891 -0.107337  0
-0.0899528 -0.0989264  0
-0.0618455 -0.0982812  0
-0.049311 -0.0970795  0
-0.0369127 -0.0939246  0
-0.0173412 -0.0906972  0
0.00237323 -0.091203  0
0.020031 -0.0924452  0
0.042278 -0.0962509  0
0.061829 -0.103168  0
0.0648468 -0.107469  0
0.0965091 -0.115554  0
0.148693 -0.115554  0
0.153593 -0.131774  0
0.148972 -0.122629  0
0.159508 -0.106801  0
0.173319 -0.0814125  0
0.192771 -0.051399  0
0.205279 -0.0180465  0
0.186047 0.0207579  0
0.182721 0.0834179  0
0.212076 0.123812  0
0.178571 0.145808  0
0.145098 0.203289  0
0.0245696 0.238377  0
-0.0532042 0.384765  0
0 0  0
0 0  0
0 0  0
0 0  0
0 0  0
0 0  0
0 0  0
0 0  0
0 0  0
0 0  0
0 0  0
0 0  0
0 0  0
0 0  0
0 0  0
0 0  0
0 0  0
0 0  0
0 0  0
0 0  0
0 0  0
0 0  0
0 0  0
0 0  0
0 0  0
0 0  0
0 0  0
0 0  0
0 0  0
0 0  0
0 0  0
0 0  0
0 0  0
0 0  0
0 0  0
0 0  0
0 0  0
0 0  0
0 0  0
0 0  0
0 0  0
0 0  0
0 0  0
0 0  0
0 0  0
0 0  0
0 0  0
0 0  0
0 0  0
0 0  0
0 0  0
0 0  0
0 0  0
0 0  0
0 0  0
0 0  0
0 0  0
0 0  0
0 0  0
0 0  0
0 0  0
0 0  0
0 0  0
0 0  0
0 0  0
0 0  0
0 0  0
0 0  0
0 0  0
0 0  0
0 0  0
0 0  0
0 0  0
0 0  0
0 0  0
0 0  0
0 0  0
0 0  0
0 0  0
0 0  0
0 0  0
0 0  0
0 0  0
0 0  0
0 0  0
0 0  0
0 0  0
0 0  0
0 0  0
0 0  0
0 0  0
0 0  0
0 0  0
0 0  0
0 0  0
0 0  0
0 0  0
0 0  0
0 0  0
0 0  0
0 0  0
0 0  0
0 0  0
0 0  0
0 0  0
0 0  0
0 0  0
0 0  0
0 0  0
0 0  0
0 0  0
0 0  0
0 0  0
0 0  0
0 0  0
0 0  0
0 0  0
0 0  0
0 0  0
0 0  0
0 0  0
0 0  0
0 0  0
0 0  0
0 0  0
0 0  0
0 0  0
0 0  0
0 0  0
0 0  0
0 0  0
0 0  0
0 0  0
0 0  0
0 0  0
0 0  0
0 0  0
0 0  0
0 0  0
0 0  0
0 0  0
0 0  0
0 0  0
0 0  0
0 0  0
0 0  0
0 0  0
0 0  0
0 0  0
0 0  0
0 0  0
0 0  0
0 0  0
0 0  0
0 0  0
0 0  0
0 0  0
0 0  0
0 0  0
0 0  0
0 0  0
0 0  0
0 0  0
0 0  0
0 0  0
0 0  0
0 0  0
0 0  0
0 0  0
0 0  0
0 0  0
0 0  0
0 0  0
0 0  0
0 0  0
0 0  0
0 0  0
0 0  0
0 0  0
0 0  0
0 0  0
0 0  0
0 0  0
0 0  0
0 0  0
0 0  0
0 0  0
0 0  0
0 0  0
0 0  0
0 0  0
0 0  0
0 0  0
0 0  0
0 0  0
0 0  0
0 0  0
0 0  0
0 0  0
0 0  0
0 0  0
0 0  0
0 0  0
0 0  0
0 0  0
0 0  0
0 0  0
0 0  0
0 0  0
0 0  0
0 0  0
0 0  0
0 0  0
0 0  0
0 0  0
0 0  0
0 0  0
0 0  0
0 0  0
0 0  0
0 0  0
0 0  0
0 0  0
0 0  0
0 0  0
0 0  0
0 0  0
0 0  0
0 0  0
0 0  0
0 0  0
0 0  0
0 0  0
0 0  0
0 0  0
0 0  0
0 0  0
0 0  0
0 0  0
0 0  0
0 0  0
0 0  0
0 0  0
0 0  0
0 0  0
0 0  0
0 0  0
0 0  0
0 0  0
0 0  0
0 0  0
0 0  0
0 0  0
0 0  0
0 0  0
0 0  0
0 0  0
0 0  0
0 0  0
0 0  0
0 0  0
0 0  0
0 0  0
0 0  0
0 0  0
0 0  0
0 0  0
0 0  0
0 0  0
0 0  0
0 0  0
0 0  0
0 0  0
0 0  0
0 0  0
0 0  0
0 0  0
0 0  0
0 0  0
0 0  0
0 0  0
0 0  0
0 0  0
0 0  0
0 0  0
0 0  0
0 0  0
0 0  0
0 0  0
0 0  0
0 0  0
0 0  0
0 0  0
0 0  0
0 0  0
0 0  0
0 0  0
0 0  0
0 0  0
0 0  0
0 0  0
0 0  0
0 0  0
0 0  0
0 0  0
0 0  0
0 0  0
0 0  0
0 0  0
0 0  0
0 0  0
0 0  0
0 0  0
0 0  0
0 0  0
0 0  0
0 0  0
0 0  0
0 0  0
0 0  0
0 0  0
0 0  0
0 0  0
0 0  0
0 0  0
0 0  0
0 0  0
0 0  0
0 0  0
0 0  0
0 0  0
0 0  0
0 0  0
0 0  0
0 0  0
0 0  0
0 0  0
0 0  0
0 0  0
0 0  0
0 0  0
0 0  0
0 0  0
0 0  0
0 0  0
0 0  0
0 0  0
0 0  0
0 0  0
0 0  0
0 0  0
0 0  0
0 0  0
0 0  0
0 0  0
0 0  0
0 0  0
0 0  0
0 0  0
0 0  0
0 0  0
0 0  0
0 0  0
0 0  0
0 0  0
0 0  0
0 0  0
0 0  0
0 0  0
0 0  0
0 0  0
0 0  0
0 0  0
0 0  0
0 0  0
0 0  0
0 0  0
0 0  0
0 0  0
0 0  0
0 0  0
0 0  0
0 0  0
0 0  0
0 0  0
0 0  0
0 0  0
0 0  0
0 0  0
0 0  0
0 0  0
0 0  0
0 0  0
0 0  0
0 0  0
0 0  0
0 0  0
0 0  0
0 0  0
0 0  0
0 0  0
0 0  0
0 0  0
0 0  0
0 0  0
0 0  0
0 0  0
0 0  0
0 0  0
0 0  0
0 0  0
0 0  0
0 0  0
0 0  0
0 0  0
0 0  0
0 0  0
0 0  0
0 0  0
0 0  0
0 0  0
0 0  0
0 0  0
0 0  0
0 0  0
0 0  0
0 0  0
0 0  0
0 0  0
0 0  0
0 0  0
0 0  0
0 0  0
0 0  0
0 0  0
0 0  0
0 0  0
0 0  0
0 0  0
0 0  0
0 0  0
0 0  0
0 0  0
0 0  0
0 0  0
0 0  0
0 0  0
0 0  0
0 0  0
0 0  0
0 0  0
0 0  0
0 0  0
0 0  0
0 0  0
0 0  0
0 0  0
0 0  0
0 0  0
0 0  0
0 0  0
0 0  0
0 0  0
0 0  0
0 0  0
0 0  0
0 0  0
0 0  0
0 0  0
0 0  0
0 0  0
0 0  0
0 0  0
0 0  0
0 0  0
0 0  0
0 0  0
0 0  0
0 0  0
0 0  0
0 0  0
0 0  0
0 0  0
0 0  0
0 0  0
0 0  0
0 0  0
0 0  0
0 0  0
0 0  0
0 0  0
0 0  0
0 0  0
0 0  0
0 0  0
0 0  0
0 0  0
0 0  0
0 0  0
0 0  0
0 0  0
0 0  0
0 0  0
0 0  0
0 0  0
0 0  0
0 0  0
0 0  0
0 0  0
0 0  0
0 0  0
0 0  0
0 0  0
0 0  0
0 0  0
0 0  0
0 0  0
0 0  0
0 0  0
0 0  0
0 0  0
0 0  0
0 0  0
0 0  0
0 0  0
0 0  0
0 0  0
0 0  0
0 0  0
0 0  0
0 0  0
0 0  0
0 0  0
0 0  0
0 0  0
0 0  0
0 0  0
0 0  0
0 0  0
0 0  0
0 0  0
0 0  0
0 0  0
0 0  0
0 0  0
0 0  0
0 0  0
0 0  0
0 0  0
0 0  0
0 0  0
0 0  0
0 0  0
0 0  0
0 0  0
0 0  0
0 0  0
0 0  0
0 0  0
0 0  0

SCALARS pressure double 1
LOOKUP_TABLE default
2.14592
2.14514
2.14359
2.14134
2.13846
2.13507
2.13128
2.12723
2.12304
2.11881
2.11465
2.11062
2.10679
2.1032
2.09989
2.09687
2.09417
2.09178
2.08971
2.08797
2.08656
2.08552
2.08488
2.08463
2.08478
2.08534
2.08631
2.08769
2.08945
2.09156
2.09399
2.09668
2.09958
2.10263
2.10574
2.10879
2.11164
2.1141
2.11595
2.11699
1.95383
1.95302
1.95144
1.94913
1.94619
1.94272
1.93885
1.93471
1.93043
1.92612
1.92188
1.91778
1.91389
1.91025
1.90689
1.90383
1.90109
1.89867
1.89657
1.8948
1.89337
1.89232
1.89168
1.89143
1.89159
1.89217
1.89319
1.89461
1.89643
1.8986
1.9011
1.90386
1.90684
1.90996
1.91315
1.91628
1.9192
1.92172
1.92361
1.92468
1.76955
1.7687
1.76705
1.76464
1.76157
1.75795
1.75391
1.7496
1.74515
1.74067
1.73628
1.73205
1.72803
1.72428
1.72083
1.71769
1.71487
1.71239
1.71023
1.70842
1.70695
1.70586
1.7052
1.70495
1.70514
1.70577
1.70685
1.70837
1.7103
1.7126
1.71523
1.71814
1.72127
1.72454
1.72787
1.73114
1.73419
1.73681
1.73877
1.73988
1.59306
1.59216
1.5904
1.58784
1.58457
1.58072
1.57643
1.57185
1.56713
1.56242
1.5578
1.55336
1.54916
1.54525
1.54166
1.5384
1.53548
1.5329
1.53067
1.52878
1.52725
1.52611
1.52542
1.52517
1.52538
1.52608
1.52727
1.52893
1.53103
1.53353
1.53636
1.53949
1.54283
1.54632
1.54987
1.55334
1.55657
1.55933
1.5614
1.56256
1.42435
1.42337
1.42147
1.41871
1.41518
1.41101
1.40636
1.40141
1.39634
1.39129
1.38637
1.38166
1.37723
1.37311
1.36934
1.36592
1.36287
1.36017
1.35784
1.35585
1.35423
1.35302
1.35229
1.35202
1.35226
1.35304
1.35438
1.35623
1.35857
1.36133
1.36444
1.36785
1.37148
1.37527
1.3791
1.38284
1.38631
1.38927
1.39148
1.39272
1.26337
1.26229
1.26022
1.2572
1.25333
1.24874
1.24363
1.2382
1.23266
1.22719
1.2219
1.21687
1.21214
1.20778
1.2038
1.2002
1.19699
1.19416
1.1917
1.1896
1.18787
1.18656
1.18575
1.18544
1.1857
1.18658
1.1881
1.19021
1.19286
1.19596
1.19943
1.20319
1.20718
1.21132
1.2155
1.21958
1.22334
1.22656
1.22895
1.23029
1.11002
1.10882
1.10654
1.10321
1.09892
1.09381
1.0881
1.08205
1.07594
1.06997
1.06425
1.05884
1.0538
1.04916
1.04495
1.04116
1.03779
1.03482
1.03223
1.02999
1.02813
1.02668
1.02574
1.02534
1.02559
1.02657
1.02832
1.03078
1.03383
1.03736
1.04126
1.04545
1.04985
1.0544
1.059
1.06347
1.0676
1.07112
1.07376
1.07524
0.964091
0.962722
0.960195
0.956532
0.951767
0.946008
0.939529
0.93271
0.92591
0.919384
0.913194
0.9074
0.902037
0.897128
0.892688
0.88872
0.885203
0.882102
0.87938
0.877013
0.874992
0.873346
0.872209
0.871631
0.871786
0.872842
0.874877
0.87779
0.881379
0.885446
0.889855
0.894522
0.899381
0.904393
0.909452
0.914377
0.918936
0.922853
0.92581
0.927497
0.825084
0.823496
0.820715
0.816732
0.811477
0.804938
0.797489
0.78971
0.782123
0.775032
0.768394
0.762266
0.756624
0.751478
0.74685
0.742748
0.739141
0.735961
0.73315
0.730664
0.728473
0.726573
0.725111
0.724175
0.724052
0.725089
0.727496
0.731054
0.735361
0.740093
0.745076
0.75025
0.755579
0.761076
0.766638
0.772062
0.777122
0.781543
0.784961
0.786967
0.691951
0.690077
0.687093
0.682949
0.677347
0.669884
0.661187
0.652238
0.643822
0.636208
0.6293
0.623015
0.617227
0.611941
0.607216
0.603089
0.59951
0.596359
0.593539
0.590984
0.588631
0.586411
0.584439
0.582827
0.582031
0.582786
0.585731
0.590281
0.59558
0.601102
0.606667
0.612304
0.61806
0.624033
0.630108
0.636048
0.641676
0.646776
0.650923
0.653517
0.562531
0.56033
0.557371
0.553557
0.548187
0.539572
0.529236
0.518929
0.509788
0.501851
0.495104
0.489052
0.483386
0.478157
0.473509
0.469547
0.466206
0.463265
0.460575
0.458051
0.455591
0.453014
0.450311
0.447497
0.445187
0.44491
0.44885
0.455096
0.461775
0.468136
0.474134
0.480037
0.486081
0.492454
0.498985
0.505365
0.511592
0.517651
0.523048
0.526877
0.432886
0.430536
0.428218
0.425849
0.42238
0.411828
0.399349
0.387768
0.378129
0.370581
0.364739
0.359594
0.354524
0.349704
0.345432
0.341931
0.339136
0.336671
0.334314
0.331991
0.329577
0.326732
0.32314
0.318413
0.312864
0.309217
0.31577
0.325236
0.333739
0.340711
0.34666
0.352374
0.358413
0.364972
0.371749
0.378274
0.384958
0.392292
0.399792
0.406366
0.297729
0.295939
0.295324
0.296365
0.298528
0.282653
0.268122
0.256474
0.247337
0.241135
0.237081
0.233727
0.229956
0.226115
0.222723
0.220124
0.218276
0.216604
0.214833
0.212969
0.210923
0.208168
0.203929
0.196843
0.185007
0.169681
0.185426
0.201315
0.211763
0.218486
0.223415
0.228166
0.233644
0.239891
0.24638
0.252447
0.258991
0.267433
0.277685
0.289828
0.154509
0.154172
0.155756
0.162183
0.171161
0.142729
0.131923
0.124348
0.118039
0.113723
0.111839
0.110874
0.109045
0.106965
0.105215
0.104143
0.103804
0.103212
0.102217
0.101097
0.099983
0.0980587
0.0944023
0.0866489
0.0664647
0.00488153
0.0597256
0.0869859
0.097475
0.102104
0.104717
0.107624
0.111608
0.116579
0.121641
0.126675
0.131718
0.139479
0.151192
0.172414
0.00873171
0.00868225
0.013578
0.00360105
0.0491204
0.000195783
-0.000974127
-0.00325112
-0.00651953
-0.00912502
-0.00920441
-0.00811606
-0.0083031
-0.00779639
-0.00726459
-0.00634464
-0.00407416
-0.00341733
-0.00378803
-0.00417257
-0.00343219
-0.0037022
-0.00455199
-0.00503171
-0.00435484
0
-0.0307463
-0.00698951
-0.00672672
-0.00673557
-0.00733129
-0.00639954
-0.00420115
-0.000726078
0.00173901
0.00402562
0.00412898
0.00578266
0.0092089
0.0474981
0
0
0
0
0
0
0
0
0
0
0
0
0
0
0
0
0
0
0
0
0
0
0
0
0
0
0
0
0
0
0
0
0
0
0
0
0
0
0
0
0
0
0
0
0
0
0
0
0
0
0
0
0
0
0
0
0
0
0
0
0
0
0
0
0
0
0
0
0
0
0
0
0
0
0
0
0
0
0
0
0
0
0
0
0
0
0
0
0
0
0
0
0
0
0
0
0
0
0
0
0
0
0
0
0
0
0
0
0
0
0
0
0
0
0
0
0
0
0
0
0
0
0
0
0
0
0
0
0
0
0
0
0
0
0
0
0
0
0
0
0
0
0
0
0
0
0
0
0
0
0
0
0
0
0
0
0
0
0
0
0
0
0
0
0
0
0
0
0
0
0
0
0
0
0
0
0
0
0
0
0
0
0
0
0
0
0
0
0
0
0
0
0
0
0
0
0
0
0
0
0
0
0
0
0
0
0
0
0
0
0
0
0
0
0
0
0
0
0
0
0
0
0
0
0
0
0
0
0
0
0
0
0
0
0
0
0
0
0
0
0
0
0
0
0
0
0
0
0
0
0
0
0
0
0
0
0
0
0
0
0
0
0
0
0
0
0
0
0
0
0
0
0
0
0
0
0
0
0
0
0
0
0
0
0
0
0
0
0
0
0
0
0
0
0
0
0
0
0
0
0
0
0
0
0
0
0
0
0
0
0
0
0
0
0
0
0
0
0
0
0
0
0
0
0
0
0
0
0
0
0
0
0
0
0
0
0
0
0
0
0
0
0
0
0
0
0
0
0
0
0
0
0
0
0
0
0
0
0
0
0
0
0
0
0
0
0
0
0
0
0
0
0
0
0
0
0
0
0
0
0
0
0
0
0
0
0
0
0
0
0
0
0
0
0
0
0
0
0
0
0
0
0
0
0
0
0
0
0
0
0
0
0
0
0
0
0
0
0
0
0
0
0
0
0
0
0
0
0
0
0
0
0
0
0
0
0
0
0
0
0
0
0
0
0
0
0
0
0
0
0
0
0
0
0
0
0
0
0
0
0
0
0
0
0
0
0
0
0
0
0
0
0
0
0
0
0
0
0
0
0
0
0
0
0
0
0
0
0
0
0
0
0
0
0
0
0
0
0
0
0
0
0
0
0
0
0
0
0
0
0
0
0
0
0
0
0
0
0
0
0
0
0
0
0
0
0
0
0
0
0
0
0
0
0
0
0
0
0
0
0
0
0
0
0
0
0
0
0
0
0
0
0
0
0
0
0
0
0
0
0
0
0
0
0
0
0
0
0
0
0
0
0
0
0
0
0
0
0
0
0
0
0
0
0
0
0
0
0
0
0
0
0
0
0
0
0
0
0
0
SCALARS rhs double 1
LOOKUP_TABLE default
-4.69055
-4.74926
-4.75038
-4.75076
-4.75086
-4.75081
-4.75075
-4.75078
-4.75097
-4.75134
-4.75191
-4.75267
-4.75357
-4.7546
-4.7557
-4.75683
-4.75793
-4.75894
-4.75978
-4.7604
-4.76026
-4.75986
-4.76065
-4.76029
-4.75979
-4.7592
-4.75856
-4.7579
-4.75724
-4.75659
-4.756
-4.75556
-4.75536
-4.75559
-4.75649
-4.75834
-4.76129
-4.76514
-4.76907
-4.77414
0.246374
0.191014
0.191194
0.19203
0.193074
0.194184
0.195215
0.196047
0.196606
0.196866
0.196806
0.196476
0.196016
0.195407
0.194697
0.193927
0.19315
0.192426
0.191825
0.191416
0.191723
0.192247
0.191504
0.191901
0.192401
0.192955
0.193532
0.194115
0.194692
0.195243
0.195733
0.196085
0.196266
0.195895
0.194746
0.192504
0.189006
0.184531
0.180021
0.174529
0.24116
0.188416
0.18863
0.189502
0.190606
0.191794
0.19291
0.193824
0.194456
0.19478
0.194731
0.194422
0.194013
0.193451
0.192778
0.192037
0.191276
0.190561
0.189967
0.18957
0.189933
0.190509
0.189747
0.190175
0.190691
0.191244
0.191806
0.192363
0.192907
0.193421
0.193862
0.194146
0.194289
0.193801
0.19249
0.190078
0.186447
0.181918
0.177432
0.171852
0.234987
0.185396
0.185623
0.186526
0.187707
0.189012
0.190265
0.191317
0.192076
0.192512
0.192466
0.192249
0.191929
0.191443
0.190834
0.19014
0.189411
0.188717
0.188141
0.187768
0.188206
0.188872
0.188069
0.188532
0.18906
0.189601
0.190132
0.190647
0.191142
0.1916
0.191968
0.192148
0.1922
0.191535
0.189973
0.187298
0.18346
0.178839
0.174373
0.168631
0.22713
0.181224
0.181437
0.182366
0.183661
0.185157
0.186648
0.187949
0.188943
0.189589
0.189534
0.189545
0.189387
0.18904
0.188548
0.187949
0.187295
0.186659
0.186134
0.185812
0.186325
0.187136
0.186253
0.186732
0.187241
0.187735
0.188204
0.188649
0.189073
0.189452
0.18972
0.189756
0.189661
0.188756
0.18685
0.183816
0.17969
0.174925
0.170459
0.164461
0.216824
0.175164
0.17532
0.176272
0.177739
0.179557
0.181471
0.183227
0.184656
0.185692
0.185565
0.186073
0.186208
0.186116
0.185845
0.185438
0.18495
0.184457
0.184054
0.183829
0.184378
0.185415
0.184372
0.184801
0.185214
0.185587
0.18593
0.18626
0.186578
0.186849
0.186983
0.186826
0.186547
0.185348
0.183007
0.179523
0.175036
0.170078
0.165591
0.159222
0.202366
0.165665
0.165743
0.16675
0.168504
0.17089
0.173591
0.176205
0.178442
0.179953
0.180019
0.181328
0.181996
0.182378
0.182531
0.1825
0.182347
0.182154
0.181995
0.181934
0.18243
0.183791
0.182441
0.182688
0.182851
0.182963
0.183064
0.183183
0.183321
0.183421
0.183353
0.182912
0.182445
0.180903
0.178027
0.174024
0.169147
0.163999
0.15951
0.152648
0.180019
0.149491
0.149646
0.150896
0.153185
0.156649
0.160901
0.165196
0.168947
0.170201
0.172303
0.174378
0.176022
0.1773
0.178256
0.17892
0.179363
0.179709
0.179974
0.180148
0.180447
0.182217
0.180342
0.180202
0.179863
0.179469
0.179101
0.178786
0.178541
0.178285
0.177829
0.17688
0.17625
0.174267
0.170674
0.166095
0.160918
0.155751
0.151447
0.144001
0.141982
0.120247
0.121281
0.123435
0.126724
0.132355
0.139857
0.147584
0.15417
0.154103
0.15993
0.163763
0.16723
0.170233
0.172696
0.174527
0.175841
0.177001
0.177901
0.178366
0.178351
0.180399
0.177918
0.177103
0.175871
0.174571
0.173273
0.171964
0.170774
0.169632
0.168329
0.166386
0.165595
0.162812
0.158015
0.152745
0.147573
0.142884
0.139325
0.131174
0.0742162
0.0673516
0.0717654
0.0764868
0.0808844
0.090887
0.105534
0.120504
0.129799
0.132315
0.141101
0.14759
0.154493
0.160817
0.166044
0.169589
0.171741
0.173887
0.175666
0.176505
0.176185
0.178023
0.175208
0.173437
0.170727
0.16801
0.16484
0.161218
0.157797
0.154576
0.151586
0.147938
0.146837
0.142074
0.134758
0.12847
0.123792
0.120152
0.118177
0.108359
-0.0389923
-0.0185126
-0.00562072
0.00479768
0.0042378
0.0227124
0.0539266
0.0844222
0.0910399
0.108433
0.114687
0.123817
0.136907
0.149285
0.159398
0.165203
0.167313
0.170195
0.173203
0.174795
0.17404
0.176012
0.172322
0.169825
0.164843
0.160994
0.153862
0.145324
0.137797
0.130935
0.125683
0.120146
0.117586
0.107958
0.0949754
0.0874964
0.0835875
0.0791992
0.0778479
0.0590768
-0.181651
-0.119357
-0.0947956
-0.0719631
-0.128211
-0.0839193
-0.0110522
0.0451935
0.0740409
0.0882946
0.0851592
0.0917612
0.11362
0.135447
0.153584
0.162942
0.163587
0.165993
0.170443
0.173682
0.17324
0.174197
0.170407
0.166885
0.158498
0.15818
0.141011
0.1245
0.11343
0.104638
0.100082
0.0946966
0.0856536
0.0656445
0.0405386
0.035774
0.0330847
0.0168175
0.00579956
-0.0648925
-0.238126
-0.151528
-0.127061
-0.0909988
-0.540385
-0.236591
-0.0537406
0.040577
0.109321
0.103124
0.076539
0.0635907
0.0883868
0.120889
0.148491