# vtk DataFile Version 4.0
Nusif Fluid VTK output
ASCII
DATASET STRUCTURED_POINTS
DIMENSIONS 40 30 1
ORIGIN 0 0 0 
SPACING 0.2 0.2 1
POINT_DATA 1200 

VECTORS velocity double
-0.00615581 0.00660643  0
-0.0183214 0.00645142  0
-0.0300262 0.00613966  0
-0.0409504 0.00567678  0
-0.0508061 0.00507681  0
-0.0593426 0.00436298  0
-0.0663627 0.00356513  0
-0.0717313 0.00271602  0
-0.0753778 0.00184709  0
-0.0772894 0.00098514  0
-0.0775004 0.000150525  0
-0.0760792 -0.000643232  0
-0.0731152 -0.00138881  0
-0.0687083 -0.00208294  0
-0.0629635 -0.0027238  0
-0.0559917 -0.00330779  0
-0.0479151 -0.00382679  0
-0.0388774 -0.00426742  0
-0.029053 -0.00461215  0
-0.0186509 -0.00484408  0
-0.00790838 -0.00495175  0
0.00292563 -0.00493475  0
0.0136138 -0.00480531  0
0.0239519 -0.004584  0
0.033777 -0.00429192  0
0.0429639 -0.00394536  0
0.0514115 -0.00355254  0
0.059027 -0.00311319  0
0.0657089 -0.00261923  0
0.0713323 -0.00205503  0
0.0757326 -0.00139683  0
0.0786885 -0.00061164  0
0.0799046 0.00034198  0
0.0789997 0.00150803  0
0.0755177 0.0029177  0
0.0689821 0.00456028  0
0.0590145 0.00634838  0
0.0455106 0.00809493  0
0.0288261 0.00952738  0
0.00988362 0.0103521  0
-0.00631887 0.019974  0
-0.0188103 0.0195038  0
-0.0308321 0.0185576  0
-0.0420481 0.0171496  0
-0.0521542 0.0153222  0
-0.0608854 0.0131473  0
-0.068036 0.0107187  0
-0.0734704 0.00813847  0
-0.0771235 0.00550337  0
-0.0789935 0.00289529  0
-0.0791276 0.000375457  0
-0.0776065 -0.00201625  0
-0.0745291 -0.00425947  0
-0.0700011 -0.00634648  0
-0.0641287 -0.00827394  0
-0.0570199 -0.0100325  0
-0.048792 -0.0115987  0
-0.0395843 -0.012931  0
-0.0295705 -0.0139748  0
-0.0189645 -0.0146758  0
-0.00801412 -0.0149974  0
0.00301774 -0.0149379  0
0.0138822 -0.0145365  0
0.02437 -0.0138592  0
0.034321 -0.0129726  0
0.0436172 -0.0119269  0
0.0521661 -0.0107465  0
0.059881 -0.00942875  0
0.0666627 -0.00794689  0
0.0723829 -0.00625144  0
0.0768692 -0.00426864  0
0.0798879 -0.00189765  0
0.0811283 0.00098663  0
0.0801946 0.00451499  0
0.0766212 0.00877685  0
0.0699331 0.0137334  0
0.0597663 0.0191154  0
0.0460407 0.0243599  0
0.0291356 0.028653  0
0.00998462 0.0311209  0
-0.00666044 0.0338421  0
-0.0198323 0.0330455  0
-0.0325142 0.0314345  0
-0.0443359 0.0290251  0
-0.0549566 0.0258887  0
-0.0640809 0.0221539  0
-0.0714868 0.0179895  0
-0.0770394 0.0135785  0
-0.0806889 0.00909208  0
-0.0824572 0.00467231  0
-0.0824188 0.000422315  0
-0.0806797 -0.00359444  0
-0.077359 -0.00734985  0
-0.0725746 -0.0108386  0
-0.0664363 -0.0140622  0
-0.0590473 -0.0170109  0
-0.0505155 -0.0196474  0
-0.0409711 -0.0218997  0
-0.0305859 -0.0236687  0
-0.0195828 -0.0248529  0
-0.00823 -0.025384  0
0.00318397 -0.0252567  0
0.0143887 -0.0245457  0
0.0251669 -0.0233746  0
0.0353653 -0.0218651  0
0.0448808 -0.0201049  0
0.0536373 -0.0181329  0
0.0615591 -0.0159387  0
0.0685495 -0.0134693  0
0.0744729 -0.0106339  0
0.0791397 -0.00730155  0
0.0822909 -0.00329843  0
0.0835859 0.00158635  0
0.0826006 0.00756669  0
0.0788523 0.0147777  0
0.0718684 0.0231315  0
0.0613125 0.0321625  0
0.0471479 0.0409249  0
0.0297927 0.0480706  0
0.0102012 0.052168  0
-0.00721453 0.0486131  0
-0.0214893 0.0474729  0
-0.0352354 0.0451466  0
-0.048023 0.0416359  0
-0.0594494 0.0370419  0
-0.0691711 0.0315665  0
-0.0769442 0.0254779  0
-0.0826399 0.0190616  0
-0.0862371 0.0125795  0
-0.0878 0.0062403  0
-0.0874483 0.000189032  0
-0.0853304 -0.00549326  0
-0.0815984 -0.0107789  0
-0.0763907 -0.0156756  0
-0.0698239 -0.0202013  0
-0.0619966 -0.0243556  0
-0.0530043 -0.0280913  0
-0.0429654 -0.0313018  0
-0.0320479 -0.0338317  0
-0.0204856 -0.0355178  0
-0.00857178 -0.0362486  0
0.00337265 -0.0360136  0
0.0150513 -0.0349355  0
0.0262408 -0.033216  0
0.0368005 -0.0310454  0
0.0466498 -0.0285536  0
0.0557335 -0.0257892  0
0.0639885 -0.0227243  0
0.0713167 -0.0192679  0
0.0775672 -0.0152757  0
0.0825215 -0.0105496  0
0.0858822 -0.00483398  0
0.0872651 0.00217048  0
0.0862055 0.0107524  0
0.0821948 0.0210684  0
0.0747705 0.0329601  0
0.0636387 0.0457333  0
0.0488197 0.0580495  0
0.0307887 0.0680441  0
0.0105308 0.073757  0
-0.00805566 0.0647811  0
-0.0239957 0.0632726  0
-0.0393314 0.0601407  0
-0.0535366 0.0553492  0
-0.0661088 0.049043  0
-0.0766355 0.0415319  0
-0.0848514 0.0332207  0
-0.0906515 0.0245332  0
-0.0940708 0.0158426  0
-0.0952432 0.00743093  0
-0.09436 -0.000518807  0
-0.0916301 -0.00791503  0
-0.0872509 -0.0147451  0
-0.0813924 -0.0210467  0
-0.0741871 -0.0268703  0
-0.0657334 -0.0322354  0
-0.0561159 -0.0370898  0
-0.0454402 -0.0412876  0
-0.0338689 -0.0446049  0
-0.0216443 -0.0468018  0
-0.0090801 -0.0477127  0
0.00347639 -0.0473206  0
0.0157109 -0.0458117  0
0.0274028 -0.0434914  0
0.0384331 -0.0406309  0
0.0487478 -0.0374031  0
0.0583111 -0.0338576  0
0.0670641 -0.0299346  0
0.074895 -0.0254888  0
0.0816223 -0.0203078  0
0.086985 -0.014113  0
0.0906342 -0.00656025  0
0.0921284 0.00273771  0
0.0909506 0.0141291  0
0.0865762 0.0277774  0
0.07856 0.0433957  0
0.0666617 0.0600317  0
0.0509878 0.0759495  0
0.0320815 0.0887897  0
0.0109589 0.0961017  0
-0.00932908 0.0830655  0
-0.0277801 0.0811337  0
-0.0454699 0.0770143  0
-0.0616947 0.0706159  0
-0.0758041 0.0621707  0
-0.0873174 0.0521567  0
-0.095973 0.0411777  0
-0.101727 0.0298408  0
-0.104716 0.0186547  0
-0.105189 0.00797371  0
-0.103435 -0.00198608  0
-0.0997411 -0.0111485  0
-0.0943709 -0.019534  0
-0.0875394 -0.0272222  0
-0.079406 -0.03431  0
-0.0700806 -0.0408522  0
-0.0596487 -0.0468005  0
-0.0482106 -0.0519691  0
-0.035924 -0.0560588  0
-0.0230284 -0.0587451  0
-0.00983501 -0.0598039  0
0.0033143 -0.0592113  0
0.0161146 -0.0572319  0
0.0283687 -0.0542942  0
0.0399897 -0.050756  0
0.0509458 -0.0468244  0
0.0612045 -0.0425342  0
0.0706877 -0.0377722  0
0.0792438 -0.0323201  0
0.086637 -0.0258817  0
0.0925418 -0.0180929  0
0.0965408 -0.00851811  0
0.098128 0.00331195  0
0.0967518 0.0178033  0
0.0918689 0.0350606  0
0.0830708 0.0546267  0
0.070221 0.075252  0
0.0535222 0.0948077  0
0.0335877 0.110479  0
0.0114577 0.119371  0
-0.0113239 0.104618  0
-0.033666 0.102125  0
-0.0548791 0.0966297  0
-0.0739477 0.0880007  0
-0.0900374 0.0766898  0
-0.102642 0.0634581  0
-0.111575 0.0491681  0
-0.116936 0.0346678  0
-0.119044 0.0206267  0
-0.118318 0.00745963  0
-0.115185 -0.00463771  0
-0.110031 -0.0156259  0
-0.103178 -0.0255646  0
-0.0949015 -0.0345865  0
-0.0854186 -0.0428493  0
-0.0748836 -0.0504598  0
-0.0634061 -0.0573877  0
-0.0510955 -0.0634147  0
-0.0381035 -0.0681753  0
-0.0246407 -0.0712711  0
-0.0109636 -0.0724318  0
0.00265185 -0.0716324  0
0.0159633 -0.0692076  0
0.0288305 -0.0657238  0
0.0412072 -0.0616069  0
0.053067 -0.0570725  0
0.0643458 -0.052109  0
0.0749028 -0.0465266  0
0.0845007 -0.0400117  0
0.092803 -0.0321794  0
0.0993872 -0.0225814  0
0.103757 -0.0107057  0
0.105361 0.00399839  0
0.103605 0.0219461  0
0.0979637 0.0431383  0
0.0881367 0.0668724  0
0.0741259 0.091568  0
0.056267 0.114749  0
0.0352199 0.133217  0
0.0120016 0.143679  0
-0.0145512 0.131387  0
-0.0431012 0.127992  0
-0.0696898 0.120265  0
-0.0927417 0.108183  0
-0.11123 0.0927792  0
-0.124819 0.0752574  0
-0.133585 0.0567652  0
-0.1379 0.038443  0
-0.138385 0.0211524  0
-0.135741 0.00527822  0
-0.130546 -0.00907686  0
-0.123239 -0.0219451  0
-0.11421 -0.0334224  0
-0.103826 -0.0436835  0
-0.0924054 -0.0529486  0
-0.0801943 -0.0613987  0
-0.0673641 -0.0690485  0
-0.0540537 -0.0756673  0
-0.0404018 -0.0808594  0
-0.0265434 -0.0841999  0
-0.0125996 -0.0854164  0
0.00131319 -0.0844688  0
0.0150791 -0.0817401  0
0.0286553 -0.0779256  0
0.0420533 -0.0734709  0
0.0552268 -0.0685352  0
0.0680226 -0.0630174  0
0.0801698 -0.0566217  0
0.0912726 -0.0489184  0
0.100823 -0.0394292  0
0.108246 -0.027649  0
0.11296 -0.0130349  0
0.11437 0.00500567  0
0.111897 0.0268597  0
0.105092 0.0523628  0
0.0938249 0.0804376  0
0.0783726 0.109158  0
0.0592286 0.135853  0
0.037018 0.157062  0
0.0126177 0.169144  0
-0.0198277 0.166655  0
-0.0583601 0.161541  0
-0.0931599 0.149792  0
-0.121697 0.13193  0
-0.142861 0.110372  0
-0.156935 0.0870184  0
-0.164637 0.0631624  0
-0.166827 0.0402485  0
-0.164629 0.0193402  0
-0.159125 0.000638673  0
-0.150998 -0.0160646  0
-0.140672 -0.0308931  0
-0.128564 -0.043911  0
-0.115167 -0.0552765  0
-0.100994 -0.0652507  0
-0.0864692 -0.0741338  0
-0.0718557 -0.0820576  0
-0.0573242 -0.0888009  0
-0.042985 -0.094017  0
-0.0288372 -0.0973492  0
-0.0147446 -0.098605  0
-0.000583528 -0.0976544  0
0.013696 -0.0948992  0
0.0282078 -0.0911542  0
0.0430633 -0.0867972  0
0.0581807 -0.0818034  0
0.0732408 -0.0759115  0
0.0877611 -0.0687033  0
0.101092 -0.0595815  0
0.11243 -0.0479656  0
0.120934 -0.033356  0
0.125904 -0.0153258  0
0.126785 0.00668924  0
0.123077 0.0330438  0
0.114429 0.0633212  0
0.10102 0.0958389  0
0.0836377 0.128276  0
0.0629959 0.158204  0
0.0394813 0.182119  0
0.0135243 0.196128  0
-0.0281706 0.215533  0
-0.082137 0.20688  0
-0.128995 0.187789  0
-0.164935 0.160093  0
-0.188854 0.128975  0
-0.202343 0.0976623  0
-0.207562 0.067129  0
-0.20621 0.0388146  0
-0.200054 0.0141082  0
-0.19065 -0.00735135  0
-0.178656 -0.0265024  0
-0.164255 -0.0434901  0
-0.147863 -0.0581251  0
-0.13021 -0.070421  0
-0.112174 -0.080623  0
-0.0944898 -0.0892796  0
-0.0774795 -0.096845  0
-0.06129 -0.103043  0
-0.0460032 -0.107709  0
-0.0314279 -0.11069  0
-0.0170217 -0.112072  0
-0.00235912 -0.11132  0
0.0127103 -0.108892  0
0.0285307 -0.105803  0
0.0454808 -0.102265  0
0.0634747 -0.0977609  0
0.081907 -0.0917616  0
0.0999971 -0.08378  0
0.116743 -0.0728977  0
0.130834 -0.0583971  0
0.140929 -0.039845  0
0.146162 -0.0173618  0
0.146166 0.00952077  0
0.140596 0.0411733  0
0.129093 0.0770209  0
0.112266 0.114054  0
0.0920422 0.149346  0
0.0694821 0.182014  0
0.0442525 0.208731  0
0.015456 0.225947  0
-0.0400651 0.284636  0
-0.115156 0.268538  0
-0.177772 0.237279  0
-0.223624 0.194068  0
-0.250603 0.147573  0
-0.261964 0.105594  0
-0.263371 0.0675079  0
-0.257569 0.0329614  0
-0.246533 0.0044503  0
-0.232422 -0.0195237  0
-0.21562 -0.0414448  0
-0.195753 -0.0611304  0
-0.173321 -0.0776259  0
-0.149574 -0.0906369  0
-0.126122 -0.100211  0
-0.104293 -0.107522  0
-0.084165 -0.114058  0
-0.0656093 -0.118893  0
-0.048818 -0.122256  0
-0.0334846 -0.124369  0
-0.0184013 -0.126199  0
-0.00279053 -0.125782  0
0.0133527 -0.123959  0
0.0307447 -0.122267  0
0.0504779 -0.120804  0
0.0726248 -0.117684  0
0.0959991 -0.111967  0
0.119457 -0.103444  0
0.141578 -0.0904226  0
0.160247 -0.0719596  0
0.173143 -0.0475996  0
0.179166 -0.0191884  0
0.178405 0.0137802  0
0.170602 0.0519617  0
0.154766 0.0952431  0
0.132162 0.136935  0
0.107683 0.172839  0
0.0827618 0.207673  0
0.0553687 0.237365  0
0.0204551 0.262692  0
-0.0527491 0.378306  0
-0.148323 0.347221  0
-0.226811 0.301367  0
-0.287272 0.237962  0
-0.319006 0.164063  0
-0.327141 0.110275  0
-0.326927 0.0656935  0
-0.318835 0.0225547  0
-0.303032 -0.0103059  0
-0.283907 -0.036328  0
-0.261441 -0.0622312  0
-0.233977 -0.0859979  0
-0.202693 -0.104799  0
-0.170014 -0.118213  0
-0.139115 -0.125309  0
-0.112705 -0.128988  0
-0.0893348 -0.134415  0
-0.0676951 -0.137056  0
-0.0488459 -0.138059  0
-0.0328591 -0.138212  0
-0.0172952 -0.141329  0
-0.000836619 -0.141047  0
0.0159193 -0.139919  0
0.0342318 -0.140338  0
0.0568338 -0.143396  0
0.0844508 -0.143184  0
0.114568 -0.138288  0
0.145778 -0.130119  0
0.176271 -0.114692  0
0.202682 -0.0911027  0
0.220822 -0.0578219  0
0.229422 -0.0219188  0
0.229514 0.0188487  0
0.220166 0.0657129  0
0.197224 0.121936  0
0.164191 0.167545  0
0.134822 0.197742  0
0.10897 0.235207  0
0.0819272 0.265929  0
0.034326 0.318303  0
-0.0504357 0.482334  0
-0.143269 0.433274  0
-0.233788 0.385981  0
-0.318879 0.300562  0
-0.357158 0.17314  0
-0.368345 0.122186  0
-0.383876 0.0707654  0
-0.380211 0.00739505  0
-0.359008 -0.0304821  0
-0.335635 -0.0569805  0
-0.307717 -0.090292  0
-0.26985 -0.121596  0
-0.225623 -0.143042  0
-0.180125 -0.156475  0
-0.140033 -0.156369  0
-0.111686 -0.151017  0
-0.0876717 -0.158104  0
-0.0628898 -0.158122  0
-0.0419451 -0.155119  0
-0.0267068 -0.150708  0
-0.0124537 -0.156981  0
0.00327241 -0.155912  0
0.0187345 -0.155605  0
0.0354817 -0.158046  0
0.0591382 -0.170282  0
0.0922119 -0.175324  0
0.129447 -0.171834  0
0.170324 -0.166995  0
0.212599 -0.14892  0
0.25071 -0.119733  0
0.277155 -0.0721101  0
0.291437 -0.0288475  0
0.296982 0.0218038  0
0.29041 0.0803404  0
0.251908 0.170412  0
0.195058 0.210611  0
0.163181 0.217582  0
0.145735 0.260324  0
0.141828 0.273421  0
0.0742196 0.427263  0
-0.0248606 0.558049  0
-0.0790192 0.505385  0
-0.156347 0.482546  0
-0.222452 0.356023  0
-0.260149 0.194485  0
-0.341581 0.194292  0
-0.417602 0.0914596  0
-0.413339 -0.0195609  0
-0.382529 -0.0538745  0
-0.361011 -0.0768148  0
-0.334334 -0.123389  0
-0.28616 -0.172874  0
-0.224752 -0.195735  0
-0.162489 -0.209878  0
-0.114685 -0.189201  0
-0.0941535 -0.165403  0
-0.0767929 -0.183433  0
-0.0507122 -0.181995  0
-0.0283863 -0.172856  0
-0.0151771 -0.159759  0
-0.00449753 -0.171203  0
0.00803837 -0.168292  0
0.0202164 -0.169206  0
0.0328278 -0.172144  0
0.0540412 -0.199394  0
0.0884389 -0.212024  0
0.127772 -0.210042  0
0.176624 -0.216858  0
0.231095 -0.194144  0
0.28064 -0.160505  0
0.314524 -0.0900045  0
0.335369 -0.0444194  0
0.351971 0.0168882  0
0.367521 0.0779352  0
0.294334 0.285749  0
0.169387 0.277899  0
0.111022 0.241364  0
0.0898193 0.276018  0
0.085058 0.267223  0
0.042529 0.384353  0
-0.000747131 0.291455  0
-0.052852 0.267342  0
-0.0760548 0.265288  0
-0.0642171 0.18705  0
-0.201151 0.107053  0
-0.320926 0.181095  0
-0.320084 0.106085  0
-0.323857 -0.0338431  0
-0.328743 -0.0646855  0
-0.324451 -0.0909834  0
-0.315662 -0.143855  0
-0.271303 -0.243692  0
-0.194412 -0.261552  0
-0.116599 -0.282476  0
-0.0756453 -0.204118  0
-0.0727515 -0.173083  0
-0.0619096 -0.203127  0
-0.0439909 -0.205472  0
-0.02407 -0.190797  0
-0.00748372 -0.170785  0
0.00340164 -0.180914  0
0.0116481 -0.178535  0
0.0221035 -0.180767  0
0.0369529 -0.187215  0
0.05723 -0.224985  0
0.0823141 -0.245086  0
0.114581 -0.247752  0
0.161786 -0.274376  0
0.215472 -0.243954  0
0.259309 -0.203249  0
0.2912 -0.112205  0
0.311374 -0.0624095  0
0.317496 0.0129839  0
0.316101 0.0685117  0
0.288181 0.218643  0
0.224871 0.159911  0
0.130543 0.128903  0
0.0851107 0.14039  0
0.0918362 0.133612  0
0.042529 0.133612  0
0 0  0
0 0  0
0 0  0
0 0  0
0 0  0
-0.160042 0.0530423  0
-0.252007 0.0530423  0
-0.239028 -0.015035  0
-0.295584 -0.0317863  0
-0.282618 -0.0481943  0
-0.224287 -0.215745  0
-0.180379 -0.284251  0
-0.163287 -0.314144  0
-0.146196 -0.323959  0
-0.124519 -0.263566  0
-0.069273 -0.0884604  0
-0.0421766 -0.105065  0
-0.0491545 -0.108193  0
-0.0430811 -0.0999017  0
-0.0152759 -0.0891823  0
0.0059576 -0.0921096  0
0.0126794 -0.0917383  0
0.0286404 -0.0931409  0
0.0617755 -0.0982753  0
0.0885687 -0.117963  0
0.0972891 -0.129614  0
0.136695 -0.132939  0
0.163128 -0.151728  0
0.174985 -0.13428  0
0.187461 -0.11124  0
0.214922 -0.0624316  0
0.241753 -0.0349627  0
0.248277 0.00718919  0
0.289034 0.0342558  0
0.158051 0.0342558  0
0 0  0
0 0  0
0 0  0
0 0  0
0 0  0
0 0  0
0 0  0
0 0  0
0 0  0
0 0  0
0 0  0
0 0  0
0 0  0
0 0  0
0 0  0
-0.0901896 -0.142126  0
-0.156887 -0.142126  0
-0.143433 -0.165618  0
-0.149834 -0.16198  0
-0.0730978 -0.16198  0
0 0  0
0 0  0
0 0  0
0 0  0
0 0  0
0 0  0
0 0  0
0 0  0
0 0  0
0 0  0
0 0  0
0 0  0
0 0  0
0 0  0
0 0  0
0 0  0
0 0  0
0 0  0
0 0  0
0 0  0
0 0  0
0 0  0
0 0  0
0 0  0
0 0  0
0 0  0
0 0  0
0 0  0
0 0  0
0 0  0
0 0  0
0 0  0
0 0  0
0 0  0
0 0  0
0 0  0
0 0  0
0 0  0
0 0  0
0 0  0
0 0  0
0 0  0
0 0  0
0 0  0
0 0  0
0 0  0
0 0  0
0 0  0
0 0  0
0 0  0
0 0  0
0 0  0
0 0  0
0 0  0
0 0  0
0 0  0
0 0  0
0 0  0
0 0  0
0 0  0
0 0  0
0 0  0
0 0  0
0 0  0
0 0  0
0 0  0
0 0  0
0 0  0
0 0  0
0 0  0
0 0  0
0 0  0
0 0  0
0 0  0
0 0  0
0 0  0
0 0  0
0 0  0
0 0  0
0 0  0
0 0  0
0 0  0
0 0  0
0 0  0
0 0  0
0 0  0
0 0  0
0 0  0
0 0  0
0 0  0
0 0  0
0 0  0
0 0  0
0 0  0
0 0  0
0 0  0
0 0  0
0 0  0
0 0  0
0 0  0
0 0  0
0 0  0
0 0  0
0 0  0
0 0  0
0 0  0
0 0  0
0 0  0
0 0  0
0 0  0
0 0  0
0 0  0
0 0  0
0 0  0
0 0  0
0 0  0
0 0  0
0 0  0
0 0  0
0 0  0
0 0  0
0 0  0
0 0  0
0 0  0
0 0  0
0 0  0
0 0  0
0 0  0
0 0  0
0 0  0
0 0  0
0 0  0
0 0  0
0 0  0
0 0  0
0 0  0
0 0  0
0 0  0
0 0  0
0 0  0
0 0  0
0 0  0
0 0  0
0 0  0
0 0  0
0 0  0
0 0  0
0 0  0
0 0  0
0 0  0
0 0  0
0 0  0
0 0  0
0 0  0
0 0  0
0 0  0
0 0  0
0 0  0
0 0  0
0 0  0
0 0  0
0 0  0
0 0  0
0 0  0
0 0  0
0 0  0
0 0  0
0 0  0
0 0  0
0 0  0
0 0  0
0 0  0
0 0  0
0 0  0
0 0  0
0 0  0
0 0  0
0 0  0
0 0  0
0 0  0
0 0  0
0 0  0
0 0  0
0 0  0
0 0  0
0 0  0
0 0  0
0 0  0
0 0  0
0 0  0
0 0  0
0 0  0
0 0  0
0 0  0
0 0  0
0 0  0
0 0  0
0 0  0
0 0  0
0 0  0
0 0  0
0 0  0
0 0  0
0 0  0
0 0  0
0 0  0
0 0  0
0 0  0
0 0  0
0 0  0
0 0  0
0 0  0
0 0  0
0 0  0
0 0  0
0 0  0
0 0  0
0 0  0
0 0  0
0 0  0
0 0  0
0 0  0
0 0  0
0 0  0
0 0  0
0 0  0
0 0  0
0 0  0
0 0  0
0 0  0
0 0  0
0 0  0
0 0  0
0 0  0
0 0  0
0 0  0
0 0  0
0 0  0
0 0  0
0 0  0
0 0  0
0 0  0
0 0  0
0 0  0
0 0  0
0 0  0
0 0  0
0 0  0
0 0  0
0 0  0
0 0  0
0 0  0
0 0  0
0 0  0
0 0  0
0 0  0
0 0  0
0 0  0
0 0  0
0 0  0
0 0  0
0 0  0
0 0  0
0 0  0
0 0  0
0 0  0
0 0  0
0 0  0
0 0  0
0 0  0
0 0  0
0 0  0
0 0  0
0 0  0
0 0  0
0 0  0
0 0  0
0 0  0
0 0  0
0 0  0
0 0  0
0 0  0
0 0  0
0 0  0
0 0  0
0 0  0
0 0  0
0 0  0
0 0  0
0 0  0
0 0  0
0 0  0
0 0  0
0 0  0
0 0  0
0 0  0
0 0  0
0 0  0
0 0  0
0 0  0
0 0  0
0 0  0
0 0  0
0 0  0
0 0  0
0 0  0
0 0  0
0 0  0
0 0  0
0 0  0
0 0  0
0 0  0
0 0  0
0 0  0
0 0  0
0 0  0
0 0  0
0 0  0
0 0  0
0 0  0
0 0  0
0 0  0
0 0  0
0 0  0
0 0  0
0 0  0
0 0  0
0 0  0
0 0  0
0 0  0
0 0  0
0 0  0
0 0  0
0 0  0
0 0  0
0 0  0
0 0  0
0 0  0
0 0  0
0 0  0
0 0  0
0 0  0
0 0  0
0 0  0
0 0  0
0 0  0
0 0  0
0 0  0
0 0  0
0 0  0
0 0  0
0 0  0
0 0  0
0 0  0
0 0  0
0 0  0
0 0  0
0 0  0
0 0  0
0 0  0
0 0  0
0 0  0
0 0  0
0 0  0
0 0  0
0 0  0
0 0  0
0 0  0
0 0  0
0 0  0
0 0  0
0 0  0
0 0  0
0 0  0
0 0  0
0 0  0
0 0  0
0 0  0
0 0  0
0 0  0
0 0  0
0 0  0
0 0  0
0 0  0
0 0  0
0 0  0
0 0  0
0 0  0
0 0  0
0 0  0
0 0  0
0 0  0
0 0  0
0 0  0
0 0  0
0 0  0
0 0  0
0 0  0
0 0  0
0 0  0
0 0  0
0 0  0
0 0  0
0 0  0
0 0  0
0 0  0
0 0  0
0 0  0
0 0  0
0 0  0
0 0  0
0 0  0
0 0  0
0 0  0
0 0  0
0 0  0
0 0  0
0 0  0
0 0  0
0 0  0
0 0  0
0 0  0
0 0  0
0 0  0
0 0  0
0 0  0
0 0  0
0 0  0
0 0  0
0 0  0
0 0  0
0 0  0
0 0  0
0 0  0
0 0  0
0 0  0
0 0  0
0 0  0
0 0  0
0 0  0
0 0  0
0 0  0
0 0  0
0 0  0
0 0  0
0 0  0
0 0  0
0 0  0
0 0  0
0 0  0
0 0  0
0 0  0
0 0  0
0 0  0
0 0  0
0 0  0
0 0  0
0 0  0
0 0  0
0 0  0
0 0  0
0 0  0
0 0  0
0 0  0
0 0  0
0 0  0
0 0  0
0 0  0
0 0  0
0 0  0
0 0  0
0 0  0
0 0  0
0 0  0
0 0  0
0 0  0
0 0  0
0 0  0
0 0  0
0 0  0
0 0  0
0 0  0
0 0  0
0 0  0
0 0  0
0 0  0
0 0  0
0 0  0
0 0  0
0 0  0
0 0  0
0 0  0
0 0  0
0 0  0
0 0  0
0 0  0
0 0  0
0 0  0
0 0  0
0 0  0
0 0  0
0 0  0
0 0  0
0 0  0
0 0  0
0 0  0
0 0  0
0 0  0
0 0  0
0 0  0
0 0  0
0 0  0
0 0  0
0 0  0
0 0  0
0 0  0
0 0  0
0 0  0
0 0  0
0 0  0
0 0  0
0 0  0
0 0  0
0 0  0
0 0  0
0 0  0
0 0  0
0 0  0
0 0  0
0 0  0
0 0  0
0 0  0
0 0  0
0 0  0
0 0  0
0 0  0
0 0  0
0 0  0
0 0  0
0 0  0
0 0  0
0 0  0
0 0  0
0 0  0
0 0  0

SCALARS pressure double 1
LOOKUP_TABLE default
3.41229
3.41085
3.4102
3.41029
3.41108
3.41246
3.41435
3.41662
3.41911
3.42166
3.42414
3.42641
3.42833
3.42983
3.43082
3.43125
3.43109
3.43032
3.42892
3.4269
3.42424
3.42097
3.41711
3.41264
3.40757
3.40193
3.39575
3.38908
3.38197
3.37459
3.367
3.3594
3.35198
3.34496
3.33859
3.33308
3.3286
3.32526
3.32311
3.32211
3.20314
3.20174
3.2011
3.20121
3.20203
3.20351
3.2055
3.20785
3.21044
3.21309
3.21564
3.21795
3.21989
3.22138
3.22235
3.22274
3.22255
3.22173
3.2203
3.21824
3.21556
3.21227
3.2084
3.20391
3.19885
3.19319
3.18699
3.18026
3.17313
3.16562
3.15792
3.15016
3.14255
3.13532
3.12872
3.12298
3.11829
3.11479
3.11252
3.11146
2.98699
2.9856
2.98503
2.98527
2.98632
2.98802
2.99026
2.9929
2.99574
2.99862
3.00138
3.00385
3.00589
3.00743
3.00839
3.00875
3.00848
3.0076
3.00609
3.00397
3.00124
2.99791
2.99401
2.98953
2.98445
2.97877
2.97251
2.96574
2.95846
2.95078
2.94281
2.93473
2.92672
2.91903
2.91194
2.9057
2.90056
2.89668
2.89412
2.8929
2.76374
2.76241
2.762
2.76255
2.76389
2.76597
2.76865
2.77174
2.77506
2.77838
2.78151
2.78424
2.78646
2.78807
2.78903
2.78931
2.78894
2.78792
2.7863
2.78407
2.78127
2.77789
2.77401
2.76953
2.76446
2.75876
2.75249
2.74561
2.73817
2.73021
2.72186
2.71327
2.70464
2.69624
2.68836
2.68137
2.6755
2.67095
2.6679
2.66642
2.53334
2.53214
2.532
2.53283
2.53464
2.53731
2.54067
2.54449
2.54851
2.55249
2.55615
2.55931
2.56178
2.56347
2.56435
2.56448
2.56392
2.56273
2.56095
2.55863
2.55575
2.55236
2.54848
2.54404
2.53901
2.53336
2.52707
2.52009
2.51243
2.50414
2.4953
2.48604
2.47655
2.46712
2.45825
2.45009
2.44307
2.43754
2.43372
2.43182
2.29571
2.29467
2.29476
2.29605
2.29849
2.30195
2.30627
2.31115
2.31621
2.32112
2.32559
2.32925
2.33195
2.33366
2.33445
2.33439
2.33358
2.33215
2.33017
2.32768
2.32473
2.32133
2.31749
2.31315
2.30822
2.30267
2.29639
2.28935
2.2815
2.27287
2.26342
2.2533
2.2427
2.23211
2.2216
2.21184
2.20321
2.19616
2.19118
2.18864
2.05063
2.04974
2.05014
2.05191
2.05512
2.05975
2.06546
2.07179
2.07829
2.08452
2.08988
2.09415
2.09723
2.09902
2.09961
2.09919
2.098
2.0962
2.09393
2.09126
2.08824
2.08484
2.08113
2.07694
2.07221
2.06681
2.06067
2.05366
2.04571
2.03668
2.02658
2.01547
2.00363
1.99111
1.97865
1.9666
1.95564
1.94648
1.9398
1.9363
1.79784
1.79704
1.79764
1.79994
1.80421
1.81032
1.81795
1.82636
1.83488
1.84261
1.84933
1.85457
1.85806
1.85978
1.85998
1.859
1.8572
1.8549
1.85226
1.84939
1.84628
1.84298
1.83942
1.8355
1.83106
1.82599
1.82012
1.8133
1.80531
1.79602
1.78524
1.77305
1.75937
1.74471
1.72943
1.71436
1.70027
1.68809
1.67886
1.67382
1.53679
1.5359
1.53654
1.53932
1.54472
1.55298
1.56336
1.57474
1.58574
1.59594
1.6044
1.6108
1.61478
1.61631
1.61577
1.61385
1.61119
1.60821
1.60512
1.60201
1.59891
1.59569
1.59242
1.58885
1.58489
1.5803
1.57492
1.56846
1.56067
1.55123
1.53988
1.52638
1.51068
1.49309
1.47425
1.4552
1.43693
1.42049
1.40731
1.39963
1.26633
1.265
1.26533
1.26829
1.27507
1.28627
1.30097
1.31652
1.33138
1.34443
1.35528
1.36337
1.36798
1.36898
1.36712
1.36372
1.35984
1.35599
1.35239
1.3491
1.34601
1.34303
1.34009
1.33705
1.33369
1.32981
1.3251
1.31929
1.31198
1.30267
1.29093
1.27615
1.25804
1.23673
1.21322
1.18909
1.16551
1.14327
1.12375
1.1109
0.98385
0.98152
0.981108
0.983867
0.992094
1.0078
1.02962
1.05185
1.07156
1.0882
1.1022
1.11285
1.11843
1.11836
1.11404
1.10828
1.10277
1.09796
1.09391
1.09051
1.0876
1.08492
1.08244
1.07998
1.07739
1.07437
1.07057
1.06569
1.05919
1.05051
1.03872
1.02292
1.00208
0.976013
0.945942
0.91561
0.886075
0.856621
0.826592
0.8011
0.683755
0.680161
0.679627
0.68115
0.690246
0.712443
0.74829
0.780782
0.806255
0.826815
0.844907
0.860033
0.86744
0.865278
0.856147
0.846688
0.839261
0.833633
0.829373
0.826102
0.823574
0.821332
0.819368
0.817515
0.815769
0.813681
0.810875
0.807153
0.801895
0.794387
0.783261
0.767118
0.743714
0.711062
0.670088
0.632808
0.598702
0.562654
0.514938
0.45621
0.358956
0.357267
0.358289
0.354047
0.362441
0.393773
0.461026
0.507424
0.537017
0.559561
0.581593
0.605997
0.617558
0.61129
0.591137
0.57666
0.567783
0.562064
0.55826
0.555637
0.553857
0.552226
0.550779
0.54946
0.548412
0.547054
0.54518
0.542471
0.538721
0.533033
0.52387
0.509177
0.484868
0.443016
0.378606
0.337475
0.305744
0.270693
0.205629
0.0355657
0.012008
0.0142613
0.0246256
0.00876411
0.00920906
0.0300632
0.183509
0.240336
0.267051
0.284012
0.306453
0.354513
0.3754
0.360387
0.31365
0.295562
0.287291
0.282857
0.28066
0.279388
0.278906
0.277958
0.277027
0.275805
0.274956
0.274005
0.272359
0.269922
0.268119
0.26531
0.260296
0.251118
0.232029
0.182626
0.0411863
0.0206001
0.00800476
0.00237717
-0.00773836
0
0
0
0
0
0
0
0.00162117
0.00191351
0.00069218
-0.00266675
-0.00256059
0.1173
0.156744
0.130295
-0.000884097
-0.00165466
-0.00358238
-0.00560072
-0.00451482
-0.00372945
-0.00161357
-0.00247079
-0.00270155
-0.00458477
-0.00551329
-0.00714729
-0.00885426
-0.0151032
-0.0123194
-0.00975376
-0.0060798
-0.0037754
0.000961884
0.00107844
0
0
0
0
0
0
0
0
0
0
0
0
0
0
0
0
0
-0.0444752
-0.00849475
-0.00451742
0
0
0
0
0
0
0
0
0
0
0
0
0
0
0
0
0
0
0
0
0
0
0
0
0
0
0
0
0
0
0
0
0
0
0
0
0
0
0
0
0
0
0
0
0
0
0
0
0
0
0
0
0
0
0
0
0
0
0
0
0
0
0
0
0
0
0
0
0
0
0
0
0
0
0
0
0
0
0
0
0
0
0
0
0
0
0
0
0
0
0
0
0
0
0
0
0
0
0
0
0
0
0
0
0
0
0
0
0
0
0
0
0
0
0
0
0
0
0
0
0
0
0
0
0
0
0
0
0
0
0
0
0
0
0
0
0
0
0
0
0
0
0
0
0
0
0
0
0
0
0
0
0
0
0
0
0
0
0
0
0
0
0
0
0
0
0
0
0
0
0
0
0
0
0
0
0
0
0
0
0
0
0
0
0
0
0
0
0
0
0
0
0
0
0
0
0
0
0
0
0
0
0
0
0
0
0
0
0
0
0
0
0
0
0
0
0
0
0
0
0
0
0
0
0
0
0
0
0
0
0
0
0
0
0
0
0
0
0
0
0
0
0
0
0
0
0
0
0
0
0
0
0
0
0
0
0
0
0
0
0
0
0
0
0
0
0
0
0
0
0
0
0
0
0
0
0
0
0
0
0
0
0
0
0
0
0
0
0
0
0
0
0
0
0
0
0
0
0
0
0
0
0
0
0
0
0
0
0
0
0
0
0
0
0
0
0
0
0
0
0
0
0
0
0
0
0
0
0
0
0
0
0
0
0
0
0
0
0
0
0
0
0
0
0
0
0
0
0
0
0
0
0
0
0
0
0
0
0
0
0
0
0
0
0
0
0
0
0
0
0
0
0
0
0
0
0
0
0
0
0
0
0
0
0
0
0
0
0
0
0
0
0
0
0
0
0
0
0
0
0
0
0
0
0
0
0
0
0
0
0
0
0
0
0
0
0
0
0
0
0
0
0
0
0
0
0
0
0
0
0
0
0
0
0
0
0
0
0
0
0
0
0
0
0
0
0
0
0
0
0
0
0
0
0
0
0
0
0
0
0
0
0
0
0
0
0
0
0
0
0
0
0
0
0
0
0
0
0
0
0
0
0
0
0
0
0
0
0
0
0
0
0
0
0
0
0
0
0
0
0
0
0
0
0
0
0
0
0
0
0
0
0
0
0
0
0
0
0
0
0
0
0
0
0
0
0
0
0
0
0
0
0
0
0
0
0
0
0
0
0
0
0
0
0
0
0
0
0
0
0
0
0
0
0
0
0
0
0
0
0
0
0
0
0
0
0
0
0
0
0
0
0
0
0
0
0
0
0
0
0
0
0
0
0
0
SCALARS rhs double 1
LOOKUP_TABLE default
-5.23119
-5.1844
-5.18136
-5.17969
-5.17859
-5.17534
-5.17407
-5.17402
-5.1732
-5.1722
-5.172
-5.17224
-5.17253
-5.17286
-5.17352
-5.17423
-5.17477
-5.17573
-5.1761
-5.17644
-5.17612
-5.17561
-5.17643
-5.17628
-5.17481
-5.17434
-5.17402
-5.17434
-5.17061
-5.17226
-5.17108
-5.17007
-5.1702
-5.17034
-5.1712
-5.17318
-5.17636
-5.18056
-5.18489
-5.19026
-0.185645
-0.145319
-0.143911
-0.142372
-0.137886
-0.139045
-0.138117
-0.135519
-0.134798
-0.134993
-0.134833
-0.134649
-0.134968
-0.135693
-0.136303
-0.136677
-0.138014
-0.138017
-0.139026
-0.139264
-0.139421
-0.138357
-0.139632
-0.137918
-0.13856
-0.137742
-0.13787
-0.133962
-0.137675
-0.134072
-0.134492
-0.134369
-0.133744
-0.134252
-0.135458
-0.13772
-0.141372
-0.146099
-0.150852
-0.156474
-0.182909
-0.144159
-0.142996
-0.138517
-0.140979
-0.13771
-0.135458
-0.135227
-0.134356
-0.13352
-0.133485
-0.133757
-0.134047
-0.134413
-0.134792
-0.136202
-0.135968
-0.137463
-0.137559
-0.138416
-0.137854
-0.137501
-0.137036
-0.137954
-0.136677
-0.137097
-0.13382
-0.136232
-0.133472
-0.134145
-0.13297
-0.132836
-0.132844
-0.133183
-0.134535
-0.137016
-0.140764
-0.145508
-0.150162
-0.155782
-0.180288
-0.144589
-0.140251
-0.143202
-0.138367
-0.137636
-0.136437
-0.134524
-0.133725
-0.133244
-0.133121
-0.133143
-0.133382
-0.133653
-0.134707
-0.134468
-0.136095
-0.136108
-0.137317
-0.137291
-0.137497
-0.135291
-0.137458
-0.13615
-0.136626
-0.134126
-0.134867
-0.133784
-0.133535
-0.132471
-0.132516
-0.132112
-0.132094
-0.132772
-0.134336
-0.137045
-0.140963
-0.145732
-0.150271
-0.155939
-0.179665
-0.142922
-0.145409
-0.140985
-0.140877
-0.138338
-0.136672
-0.135343
-0.133925
-0.133099
-0.133259
-0.133095
-0.133014
-0.133641
-0.133579
-0.134735
-0.134881
-0.136145
-0.136229
-0.137127
-0.135807
-0.135356
-0.13601
-0.136008
-0.134521
-0.133965
-0.134117
-0.132649
-0.132821
-0.132113
-0.131645
-0.131757
-0.131841
-0.132675
-0.134586
-0.137588
-0.141691
-0.146498
-0.150919
-0.156682
-0.178698
-0.148808
-0.146109
-0.145286
-0.142737
-0.141051
-0.138692
-0.136697
-0.135156
-0.134204
-0.134141
-0.133567
-0.133578
-0.133414
-0.133764
-0.134161
-0.134888
-0.135314
-0.13602
-0.135911
-0.13545
-0.134304
-0.13538
-0.134833
-0.133567
-0.13398
-0.13272
-0.132844
-0.131978
-0.131918
-0.131535
-0.13162
-0.131985
-0.133085
-0.135316
-0.138623
-0.142889
-0.147713
-0.152032
-0.157955
-0.183813
-0.154932
-0.152942
-0.151316
-0.148732
-0.145862
-0.14317
-0.140268
-0.137678
-0.136794
-0.136404
-0.135363
-0.134746
-0.134257
-0.134342
-0.134266
-0.134713
-0.134935
-0.135198
-0.135035
-0.134937
-0.132907
-0.134702
-0.133547
-0.13363
-0.13334
-0.13286
-0.132681
-0.132445
-0.132108
-0.132116
-0.132366
-0.132797
-0.134236
-0.136815
-0.140315
-0.144595
-0.149344
-0.15357
-0.159744
-0.197955
-0.169047
-0.167534
-0.163726
-0.160088
-0.155839
-0.151573
-0.146752
-0.144282
-0.14242
-0.140586
-0.138969
-0.137495
-0.13659
-0.135657
-0.135261
-0.134746
-0.134664
-0.134157
-0.134283
-0.13379
-0.131746
-0.133484
-0.133251
-0.133832
-0.133613
-0.134022
-0.133847
-0.134026
-0.134014
-0.134219
-0.134868
-0.135455
-0.137282
-0.14021
-0.143607
-0.147421
-0.151771
-0.155853
-0.162492
-0.232404
-0.202188
-0.1969
-0.189266
-0.181197
-0.174304
-0.167007
-0.160108
-0.1535
-0.154596
-0.149495
-0.146338
-0.143656
-0.14124
-0.138955
-0.137141
-0.135663
-0.134389
-0.133422
-0.133067
-0.132775
-0.130594
-0.132613
-0.133765
-0.134821
-0.135861
-0.136904
-0.137694
-0.138401
-0.139246
-0.140126
-0.141723
-0.142396
-0.145159
-0.148668
-0.151262
-0.153334
-0.15649
-0.160379
-0.16852
-0.314107
-0.271828
-0.257339
-0.237871
-0.218917
-0.205265
-0.193046
-0.180456
-0.173902
-0.171029
-0.16387
-0.159453
-0.154913
-0.14989
-0.144865
-0.140563
-0.137538
-0.134713
-0.132896
-0.131827
-0.132091
-0.130007
-0.132475
-0.134972
-0.137663
-0.140861
-0.143285
-0.146024
-0.148598
-0.151367
-0.15398
-0.157845
-0.158485
-0.164198
-0.169469
-0.169304
-0.166166
-0.166844
-0.172354
-0.204595
-0.485465
-0.399196
-0.351809
-0.320073
-0.284181
-0.265257
-0.239455
-0.220022
-0.211399
-0.192221
-0.186551
-0.181481
-0.174158
-0.165086
-0.154311
-0.14554
-0.140862
-0.136224
-0.132762
-0.130846
-0.131955
-0.129731
-0.13292
-0.136374
-0.142789
-0.149598
-0.154879
-0.161503
-0.168344
-0.175778
-0.181417
-0.189146
-0.190917
-0.205603
-0.221456
-0.213434
-0.196844
-0.197976
-0.249946
-0.241257
-0.70027
-0.463298
-0.44641
-0.421042
-0.32192
-0.240962
-0.233144
-0.230963
-0.221702
-0.207066
-0.223833
-0.222759
-0.210717
-0.196146
-0.185612
-0.15968
-0.153955
-0.146917
-0.139208
-0.1329
-0.134513
-0.131226
-0.13491
-0.137644
-0.152275
-0.166977
-0.172956
-0.192769
-0.204499
-0.221559
-0.224476
-0.235176
-0.244564
-0.286616
-0.300247
-0.235805
-0.190104
-0.243808
-0.219507
-0.429519
-0.594587
-0.437831
-0.442435
-0.141158
-0.0641435
-0.230818