# vtk DataFile Version 4.0
Nusif Fluid VTK output
ASCII
DATASET STRUCTURED_POINTS
DIMENSIONS 40 30 1
ORIGIN 0 0 0 
SPACING 0.2 0.2 1
POINT_DATA 1200 

VECTORS velocity double
3.09334e-05 -0.000235421  0
0.00015284 -0.000235356  0
0.000338907 -0.00023796  0
0.000535839 -0.000243355  0
0.000749263 -0.000251909  0
0.000985775 -0.000264196  0
0.00125336 -0.000281  0
0.00156182 -0.000303326  0
0.00192322 -0.000332408  0
0.00235232 -0.000369688  0
0.00286694 -0.000416737  0
0.00348805 -0.000475137  0
0.00423959 -0.000546234  0
0.00514756 -0.000630748  0
0.00623851 -0.000728448  0
0.0075372 -0.00083779  0
0.00906374 -0.000955647  0
0.0108307 -0.00107757  0
0.0128412 -0.00119861  0
0.0150894 -0.00131463  0
0.0175633 -0.00142362  0
0.0202497 -0.0015266  0
0.0231408 -0.00162761  0
0.0262386 -0.00173271  0
0.029558 -0.00184854  0
0.0331262 -0.00198093  0
0.0369807 -0.00213408  0
0.0411651 -0.00231024  0
0.0457261 -0.00251003  0
0.0507105 -0.00273305  0
0.0561644 -0.00297899  0
0.0621352 -0.00324933  0
0.0686776 -0.00355005  0
0.0758678 -0.00389676  0
0.0838312 -0.00432277  0
0.0927695 -0.00487132  0
0.102748 -0.00536272  0
0.111486 -0.00363071  0
0.10431 0.0105519  0
0.0468152 0.0466877  0
3.07541e-05 -0.000644154  0
0.000149997 -0.000645291  0
0.000330842 -0.000654121  0
0.000521885 -0.000671029  0
0.000728422 -0.000697106  0
0.000956676 -0.000734069  0
0.00121421 -0.000784258  0
0.00151038 -0.000850688  0
0.00185683 -0.000937097  0
0.00226794 -0.00104787  0
0.00276141 -0.00118791  0
0.00335848 -0.0013622  0
0.00408386 -0.00157504  0
0.00496508 -0.00182912  0
0.00603115 -0.00212417  0
0.00730974 -0.0024556  0
0.0088237 -0.00281379  0
0.0105873 -0.0031847  0
0.0126036 -0.00355226  0
0.0148638 -0.00390259  0
0.0173507 -0.00422875  0
0.020045 -0.00453386  0
0.0229338 -0.00483105  0
0.0260167 -0.00513996  0
0.0293086 -0.00548185  0
0.0328395 -0.0058751  0
0.03665 -0.00633249  0
0.0407876 -0.00686058  0
0.0453015 -0.00746056  0
0.0502395 -0.0081302  0
0.0556461 -0.00886694  0
0.0615623 -0.00967214  0
0.0680279 -0.0105585  0
0.0750891 -0.0115625  0
0.082808 -0.0127614  0
0.0912487 -0.0142335  0
0.100192 -0.0153441  0
0.106989 -0.00960559  0
0.0977776 0.0324935  0
0.0431524 0.136445  0
2.90784e-05 -0.000984834  0
0.000141966 -0.000988326  0
0.000312951 -0.00100393  0
0.000492825 -0.00103228  0
0.000686226 -0.00107516  0
0.000898625 -0.00113536  0
0.00113673 -0.00121671  0
0.00140898 -0.00132422  0
0.00172601 -0.00146415  0
0.00210146 -0.00164407  0
0.00255258 -0.00187262  0
0.00310083 -0.00215881  0
0.00377242 -0.00251109  0
0.00459815 -0.00293544  0
0.0056118 -0.00343272  0
0.00684732 -0.00399606  0
0.00833429 -0.00460888  0
0.0100918 -0.00524509  0
0.0121228 -0.00587328  0
0.0144123 -0.00646511  0
0.0169313 -0.00700554  0
0.0196466 -0.00749992  0
0.0225337 -0.00797383  0
0.0255866 -0.00846553  0
0.0288215 -0.00901538  0
0.0322741 -0.00965693  0
0.0359935 -0.0104122  0
0.040035 -0.0112913  0
0.0444541 -0.0122939  0
0.0493017 -0.0134132  0
0.0546201 -0.0146396  0
0.0604412 -0.0159669  0
0.0667837 -0.0174019  0
0.0736517 -0.0189782  0
0.0810279 -0.0207706  0
0.0888388 -0.0228056  0
0.0966763 -0.0238827  0
0.10192 -0.0134375  0
0.092048 0.05508  0
0.0403848 0.219817  0
2.61206e-05 -0.00131168  0
0.000129447 -0.00131707  0
0.000286508 -0.00133828  0
0.00045058 -0.00137615  0
0.000625338 -0.00143304  0
0.000815134 -0.00151266  0
0.00102538 -0.00162021  0
0.00126296 -0.00176253  0
0.00153698 -0.00194846  0
0.00185953 -0.00218896  0
0.00224668 -0.00249688  0
0.00271987 -0.00288659  0
0.00330715 -0.00337252  0
0.00404352 -0.00396621  0
0.00497058 -0.00467252  0
0.00613354 -0.0054844  0
0.00757458 -0.00637798  0
0.00932283 -0.00731094  0
0.0113835 -0.00822811  0
0.0137315 -0.00907648  0
0.0163157 -0.00982581  0
0.0190765 -0.0104839  0
0.021968 -0.0110963  0
0.0249748 -0.0117304  0
0.0281169 -0.0124547  0
0.0314422 -0.0133224  0
0.0350152 -0.0143656  0
0.0389052 -0.0155958  0
0.0431789 -0.0170082  0
0.0478934 -0.0185866  0
0.0530918 -0.0203085  0
0.058799 -0.0221514  0
0.0650146 -0.0241006  0
0.0717043 -0.0261619  0
0.0787843 -0.0283677  0
0.0860795 -0.0306391  0
0.0930872 -0.0312189  0
0.0973876 -0.0159704  0
0.0876738 0.0768748  0
0.0384976 0.298537  0
2.21936e-05 -0.00162118  0
0.000113457 -0.00162786  0
0.000253362 -0.00165312  0
0.000397953 -0.00169796  0
0.000549686 -0.00176512  0
0.000711457 -0.00185903  0
0.000886869 -0.00198592  0
0.0010807 -0.00215427  0
0.00129963 -0.00237533  0
0.00155305 -0.00266342  0
0.00185479 -0.00303639  0
0.00222513 -0.00351546  0
0.0026929 -0.00412334  0
0.00329818 -0.00488148  0
0.00409357 -0.00580394  0
0.00514182 -0.00688827  0
0.00650771 -0.00810494  0
0.00824158 -0.00938983  0
0.0103572 -0.010649  0
0.0128145 -0.0117842  0
0.0155238 -0.0127346  0
0.018376 -0.0135109  0
0.021287 -0.0141942  0
0.024228 -0.0149025  0
0.0272293 -0.0157478  0
0.0303629 -0.0168097  0
0.0337198 -0.0181293  0
0.0373922 -0.0197156  0
0.0414633 -0.0215539  0
0.0460011 -0.0236137  0
0.0510549 -0.0258538  0
0.0566486 -0.0282267  0
0.0627715 -0.0306835  0
0.0693654 -0.033182  0
0.0763035 -0.0356849  0
0.0833489 -0.0379816  0
0.0899566 -0.0378108  0
0.0939153 -0.0179566  0
0.0848056 0.0973654  0
0.037417 0.374292  0
1.76847e-05 -0.00191068  0
9.52502e-05 -0.00191791  0
0.000215799 -0.00194543  0
0.000338444 -0.00199424  0
0.000464244 -0.00206725  0
0.000594338 -0.00216921  0
0.000730111 -0.00230699  0
0.000873577 -0.00249023  0
0.00102784 -0.002732  0
0.0011983 -0.00304982  0
0.00139458 -0.00346697  0
0.00163302 -0.00401243  0
0.00194112 -0.00472085  0
0.00236288 -0.00562949  0
0.00296375 -0.00677054  0
0.0038325 -0.00815689  0
0.00507297 -0.00976078  0
0.00677871 -0.0114916  0
0.00898916 -0.0131911  0
0.0116458 -0.0146737  0
0.0145889 -0.0158148  0
0.0176169 -0.016628  0
0.0205763 -0.0172642  0
0.0234211 -0.0179347  0
0.0262096 -0.0188216  0
0.0290605 -0.0200364  0
0.0321091 -0.0216237  0
0.0354807 -0.0235805  0
0.0392808 -0.0258751  0
0.0435931 -0.0284575  0
0.0484784 -0.0312637  0
0.053969 -0.0342154  0
0.0600577 -0.0372206  0
0.0666816 -0.0401765  0
0.0737001 -0.0429607  0
0.0808605 -0.0452251  0
0.0876328 -0.0442607  0
0.0919703 -0.0201161  0
0.0838151 0.116476  0
0.0372595 0.448812  0
1.30218e-05 -0.00217851  0
7.62153e-05 -0.00218553  0
0.000176365 -0.00221341  0
0.000275999 -0.002263  0
0.0003747 -0.00233707  0
0.00047169 -0.00244022  0
0.000565853 -0.00257936  0
0.000655731 -0.00276439  0
0.00073989 -0.00300924  0
0.000817984 -0.00333392  0
0.000892271 -0.00376606  0
0.000971249 -0.00434324  0
0.00107579 -0.00511506  0
0.00124846 -0.006142  0
0.00156613 -0.00748878  0
0.00215154 -0.00920497  0
0.00317299 -0.0112867  0
0.00481117 -0.0136216  0
0.00717502 -0.0159474  0
0.0101908 -0.0179016  0
0.0135693 -0.0192201  0
0.0169266 -0.0199194  0
0.0199803 -0.0202969  0
0.0226705 -0.0207476  0
0.0251274 -0.0215644  0
0.0275606 -0.0228878  0
0.0301756 -0.0247456  0
0.0331407 -0.0271048  0
0.0365861 -0.0299055  0
0.0406123 -0.0330747  0
0.0452969 -0.0365251  0
0.0506915 -0.0401476  0
0.0568091 -0.0438031  0
0.0636028 -0.0473195  0
0.0709429 -0.050484  0
0.0786007 -0.0528275  0
0.0861287 -0.051266  0
0.0916206 -0.0232476  0
0.0847591 0.134317  0
0.0380303 0.523948  0
8.62899e-06 -0.00242402  0
5.77386e-05 -0.00243013  0
0.000137631 -0.00245658  0
0.000214655 -0.0025039  0
0.000286995 -0.00257434  0
0.000352025 -0.00267185  0
0.000405981 -0.00280253  0
0.000443615 -0.00297524  0
0.000458184 -0.00320346  0
0.000441553 -0.00350737  0
0.000385273 -0.00391673  0
0.000283968 -0.00447628  0
0.000142348 -0.00525093  0
-1.08879e-05 -0.00633151  0
-9.9244e-05 -0.00783451  0
3.45388e-05 -0.00988439  0
0.000656305 -0.0125565  0
0.00211801 -0.0157577  0
0.00470908 -0.0190721  0
0.00837308 -0.0217624  0
0.0125711 -0.0232415  0
0.01654 -0.0235294  0
0.019748 -0.0232536  0
0.0221535 -0.0231914  0
0.0240692 -0.0237975  0
0.0258792 -0.0252019  0
0.0278921 -0.0273633  0
0.0303208 -0.0301845  0
0.0333109 -0.0335646  0
0.0369737 -0.0374079  0
0.041406 -0.0416116  0
0.0466917 -0.046044  0
0.0528854 -0.0505205  0
0.0599776 -0.05479  0
0.0678562 -0.0585341  0
0.0763023 -0.0611828  0
0.084961 -0.0593988  0
0.0921395 -0.0280865  0
0.0869498 0.150906  0
0.0394545 0.601282  0
4.87899e-06 -0.00264751  0
4.10531e-05 -0.00265217  0
0.000101917 -0.00267573  0
0.000158115 -0.00271823  0
0.000206724 -0.00278106  0
0.000243556 -0.00286695  0
0.000262476 -0.00298013  0
0.000254691 -0.0031272  0
0.000207835 -0.00331885  0
0.000104811 -0.0035719  0
-7.66194e-05 -0.00391402  0
-0.000362896 -0.00439092  0
-0.000779396 -0.00507768  0
-0.00133502 -0.00609544  0
-0.00198667 -0.00763018  0
-0.00257035 -0.00993851  0
-0.00270012 -0.0132942  0
-0.00170428 -0.0177774  0
0.00117047 -0.0228182  0
0.00602167 -0.0268315  0
0.0118026 -0.0284511  0
0.0169148 -0.0277003  0
0.0203187 -0.0259936  0
0.0221273 -0.0249642  0
0.0231177 -0.0252292  0
0.0239958 -0.0267562  0
0.0251943 -0.0293184  0
0.0269412 -0.0327027  0
0.0293652 -0.0367579  0
0.0325689 -0.0413783  0
0.036666 -0.0464676  0
0.0417898 -0.0518944  0
0.0480714 -0.0574418  0
0.0555767 -0.0627621  0
0.0642013 -0.067361  0
0.073588 -0.070484  0
0.0832039 -0.0686673  0
0.091696 -0.0347837  0
0.088508 0.165685  0
0.0408108 0.6814  0
2.05849e-06 -0.00285015  0
2.71253e-05 -0.00285308  0
7.10663e-05 -0.0028728  0
0.000109376 -0.00290877  0
0.000138498 -0.00296129  0
0.00015327 -0.00303132  0
0.000146006 -0.00312039  0
0.000105305 -0.00323141  0
1.40869e-05 -0.0033695  0
-0.000153005 -0.00354405  0
-0.000433045 -0.00377333  0
-0.000878842 -0.00409249  0
-0.00156118 -0.00457026  0
-0.00256224 -0.00533925  0
-0.003941 -0.00664916  0
-0.00562789 -0.00894233  0
-0.00718075 -0.0129013  0
-0.00740376 -0.019237  0
-0.00434243 -0.0275888  0
0.00274323 -0.0342919  0
0.0117061 -0.0360285  0
0.019002 -0.0328246  0
0.0224896 -0.0280539  0
0.0229247 -0.02544  0
0.0222856 -0.025397  0
0.0218006 -0.0272734  0
0.021959 -0.0304499  0
0.0228985 -0.0345494  0
0.024658 -0.0393863  0
0.0272943 -0.0448813  0
0.0309308 -0.0509893  0
0.0357731 -0.0576298  0
0.0420936 -0.0645992  0
0.0501409 -0.0714475  0
0.0598859 -0.0773349  0
0.0705507 -0.0808508  0
0.0803201 -0.0779745  0
0.0876788 -0.0416161  0
0.0859537 0.177142  0
0.0406195 0.762685  0
4.45896e-07 -0.00303384  0
1.68739e-05 -0.00303504  0
4.67848e-05 -0.00305066  0
7.11155e-05 -0.00307958  0
8.63038e-05 -0.00312088  0
8.71029e-05 -0.00317344  0
6.55839e-05 -0.00323567  0
9.53447e-06 -0.00330561  0
-0.00010016 -0.00338068  0
-0.00029359 -0.0034587  0
-0.000618712 -0.00353992  0
-0.00115245 -0.00363284  0
-0.00201757 -0.00376902  0
-0.00340402 -0.00403967  0
-0.00557822 -0.00468263  0
-0.0088091 -0.00627819  0
-0.0129792 -0.01013  0
-0.0163737 -0.0186788  0
-0.0138645 -0.0340061  0
-0.00239334 -0.0467203  0
0.0133017 -0.0485466  0
0.0249266 -0.0395152  0
0.0277466 -0.0279579  0
0.0248362 -0.0233471  0
0.021348 -0.0236488  0
0.0190214 -0.026496  0
0.018016 -0.0306661  0
0.0181277 -0.0356703  0
0.0191901 -0.0413732  0
0.0211686 -0.047795  0
0.0241833 -0.0550123  0
0.0285349 -0.063086  0
0.0347382 -0.0719518  0
0.0434951 -0.0811835  0
0.0553415 -0.089474  0
0.0692042 -0.0935221  0
0.0788198 -0.0849702  0
0.0788812 -0.0423226  0
0.0757945 0.182376  0
0.0375661 0.840728  0
9.69232e-07 -0.00320185  0
1.31462e-05 -0.00320166  0
3.39357e-05 -0.00321369  0
5.03085e-05 -0.00323637  0
5.94131e-05 -0.00326766  0
5.69951e-05 -0.00330447  0
3.64897e-05 -0.00334218  0
-1.25364e-05 -0.00337371  0
-0.000106961 -0.00338825  0
-0.000274724 -0.00336983  0
-0.000563501 -0.00329489  0
-0.00105734 -0.0031304  0
-0.00190957 -0.00283433  0
-0.00340842 -0.00236942  0
-0.00610176 -0.00176586  0
-0.0109856 -0.00136102  0
-0.0194788 -0.00266513  0
-0.0311753 -0.0113347  0
-0.0323041 -0.0430138  0
-0.0116809 -0.0700909  0
0.0191457 -0.0719813  0
0.0398751 -0.0487173  0
0.03894 -0.0209218  0
0.027553 -0.016366  0
0.0195189 -0.0193877  0
0.0152457 -0.0244375  0
0.0133486 -0.0301023  0
0.0128853 -0.0361627  0
0.013396 -0.042734  0
0.0147411 -0.0500378  0
0.017027 -0.0583502  0
0.0206401 -0.0679928  0
0.0264079 -0.0792957  0
0.0359227 -0.0923905  0
0.0518549 -0.106324  0
0.075959 -0.114916  0
0.0880221 -0.0855295  0
0.0644659 -0.0185429  0
0.0522464 0.173625  0
0.03076 0.908914  0
7.68804e-06 -0.00336261  0
2.82112e-05 -0.0033617  0
5.31676e-05 -0.00337154  0
7.61544e-05 -0.00339032  0
9.57898e-05 -0.00341516  0
0.000109898 -0.0034416  0
0.000114958 -0.00346275  0
0.000105153 -0.00346765  0
7.07253e-05 -0.00343898  0
-5.21763e-06 -0.00334908  0
-0.000153137 -0.00315277  0
-0.000430962 -0.0027748  0
-0.000956672 -0.00208606  0
-0.0019918 -0.000857917  0
-0.00417724 0.00132706  0
-0.00926452 0.00524266  0
-0.0225004 0.0121853  0
-0.0570134 0.0197484  0
-0.0741899 -0.0560699  0
-0.0320498 -0.120078  0
0.0369298 -0.12208  0
0.079275 -0.0619708  0
0.0622622 0.0100051  0
0.027937 -0.00185401  0
0.0150349 -0.0132375  0
0.0103862 -0.02194  0
0.00877208 -0.0293632  0
0.00848076 -0.0364219  0
0.00893903 -0.0437186  0
0.0100034 -0.0517377  0
0.0117754 -0.0609833  0
0.0146411 -0.0721135  0
0.0195586 -0.0861351  0
0.0289765 -0.104758  0
0.0497428 -0.130928  0
0.098703 -0.163647  0
0.11168 -0.0620401  0
0.0266117 0.0664566  0
0.000754843 0.126494  0
0.0192361 0.958771  0
2.97052e-05 -0.00347246  0
8.98768e-05 -0.00347216  0
0.000151644 -0.00348222  0
0.000215417 -0.00350099  0
0.000281933 -0.00352538  0
0.000352023 -0.00355046  0
0.00042644 -0.00356838  0
0.000505893 -0.00356679  0
0.000591074 -0.00352581  0
0.000682414 -0.00341295  0
0.000779824 -0.00317378  0
0.000882117 -0.00271373  0
0.000985515 -0.00186035  0
0.00107951 -0.000278075  0
0.00112695 0.00274956  0
0.000755597 0.00914308  0
-0.00701683 0.0291573  0
-0.130241 0.160377  0
-0.222652 -0.0873191  0
-0.0989168 -0.254984  0
0.102345 -0.257694  0
0.22755 -0.0941805  0
0.137958 0.148617  0
0.0151017 0.0165802  0
0.00588087 -0.0096844  0
0.00597516 -0.0210745  0
0.0067261 -0.0295015  0
0.00772067 -0.0371229  0
0.00898001 -0.0448713  0
0.0105892 -0.0533946  0
0.0127093 -0.0633547  0
0.0156447 -0.0756796  0
0.0199889 -0.091967  0
0.0268116 -0.115303  0
0.0373711 -0.151845  0
0.0437304 -0.198185  0
-0.0183304 -0.119366  0
-0.0367004 -0.00345965  0
0.0799603 0.0157371  0
0.076465 1.05433  0
2.99369e-05 -0.00175108  0
9.55526e-05 -0.00175131  0
0.000167061 -0.00175676  0
0.000238368 -0.00176673  0
0.000308457 -0.00177971  0
0.000375687 -0.00179326  0
0.000437123 -0.00180337  0
0.000487475 -0.00180394  0
0.000517233 -0.00178496  0
0.000509431 -0.0017301  0
0.000432653 -0.00161197  0
0.000225953 -0.00138293  0
-0.000237016 -0.000955809  0
-0.00124872 -0.000160397  0
-0.00379303 0.00137242  0
-0.0161488 0.00475958  0
-0.02052 -0.495329  0
-0.751948 -0.375503  0
-1.03095 -0.569367  0
-0.287025 -0.640806  0
0.28368 -0.644117  0
1.0284 -0.577884  0
0.874382 -0.393023  0
0.15107 -0.511467  0
0.0293658 -0.00473298  0
0.016212 -0.0106936  0
0.0148721 -0.0149699  0
0.015538 -0.0188396  0
0.0172908 -0.0227872  0
0.0200863 -0.0271504  0
0.0242595 -0.0322842  0
0.0306553 -0.0387006  0
0.04104 -0.0472948  0
0.058619 -0.0597517  0
0.0767118 -0.0791022  0
0.0637206 -0.0990924  0
0.0218652 -0.0990924  0
-0.0363635 -0.0970914  0
-0.0727269 -0.0572327  0
-0.0363635 1.09436  0
0 0  0
0 0  0
0 0  0
0 0  0
0 0  0
0 0  0
0 0  0
0 0  0
0 0  0
0 0  0
0 0  0
0 0  0
0 0  0
0 0  0
0 0  0
0 0  0
-0.00719251 -1.03378  0
-0.014385 -1.02721  0
-0.0275836 -1.0148  0
-0.0215531 -0.94554  0
0.0173236 -0.949245  0
0.0250301 -1.02539  0
0.013089 -1.04852  0
0.00654448 -1.06247  0
0 0  0
0 0  0
0 0  0
0 0  0
0 0  0
0 0  0
0 0  0
0 0  0
0 0  0
0 0  0
0 0  0
0 0  0
0 0  0
-0.0363635 -0.0286164  0
-0.630344 -0.0286164  0
-0.59398 0.529  0
0 0  0
0 0  0
0 0  0
0 0  0
0 0  0
0 0  0
0 0  0
0 0  0
0 0  0
0 0  0
0 0  0
0 0  0
0 0  0
0 0  0
0 0  0
0 0  0
-0.013757 -1.00805  0
-0.0338327 -1.02089  0
-0.0396163 -1.00228  0
-0.0227383 -0.981253  0
0.011509 -0.986938  0
0.035672 -1.01985  0
0.041461 -1.04805  0
0.0204957 -1.04934  0
0 0  0
0 0  0
0 0  0
0 0  0
0 0  0
0 0  0
0 0  0
0 0  0
0 0  0
0 0  0
0 0  0
0 0  0
0 0  0
0 0  0
0 0  0
0 0  0
0 0  0
0 0  0
0 0  0
0 0  0
0 0  0
0 0  0
0 0  0
0 0  0
0 0  0
0 0  0
0 0  0
0 0  0
0 0  0
0 0  0
0 0  0
0 0  0
0.00565282 -0.967772  0
-0.00352022 -0.999748  0
-0.0236941 -0.997607  0
-0.0213625 -1.00542  0
-0.00403386 -1.01463  0
0.0104351 -1.03107  0
0.0154634 -1.04779  0
0.00783583 -1.02548  0
0 0  0
0 0  0
0 0  0
0 0  0
0 0  0
0 0  0
0 0  0
0 0  0
0 0  0
0 0  0
0 0  0
0 0  0
0 0  0
0 0  0
0 0  0
0 0  0
0 0  0
0 0  0
0 0  0
0 0  0
0 0  0
0 0  0
0 0  0
0 0  0
0 0  0
0 0  0
0 0  0
0 0  0
0 0  0
0 0  0
0 0  0
0 0  0
0.0182186 -0.99474  0
0.00828954 -0.956774  0
-0.0302042 -0.982055  0
-0.0328012 -1.02099  0
-0.0172848 -1.03219  0
-0.00650466 -1.03904  0
-0.00356031 -1.04793  0
-0.00181444 -1.0306  0
0 0  0
0 0  0
0 0  0
0 0  0
0 0  0
0 0  0
0 0  0
0 0  0
0 0  0
0 0  0
0 0  0
0 0  0
0 0  0
0 0  0
0 0  0
0 0  0
0 0  0
0 0  0
0 0  0
0 0  0
0 0  0
0 0  0
0 0  0
0 0  0
0 0  0
0 0  0
0 0  0
0 0  0
0 0  0
0 0  0
0 0  0
0 0  0
-0.0323131 -0.979158  0
-0.0646262 -0.928627  0
-0.0660708 -0.970405  0
-0.0523919 -1.044  0
-0.0294592 -1.04791  0
-0.0203168 -1.04346  0
-0.0189836 -1.04786  0
-0.00949181 -1.04018  0
0 0  0
0 0  0
0 0  0
0 0  0
0 0  0
0 0  0
0 0  0
0 0  0
0 0  0
0 0  0
0 0  0
0 0  0
0 0  0
0 0  0
0 0  0
0 0  0
0 0  0
0 0  0
0 0  0
0 0  0
0 0  0
0 0  0
0 0  0
0 0  0
0 0  0
0 0  0
0 0  0
0 0  0
0 0  0
0 0  0
0 0  0
0 0  0
-0.0323131 -0.464313  0
-0.0647941 -0.948829  0
-0.064962 -0.969032  0
-0.0543788 -1.06978  0
-0.0437957 -1.05579  0
-0.0298564 -1.05029  0
-0.0174503 -0.523928  0
-0.00949181 -0.523928  0
0 0  0
0 0  0
0 0  0
0 0  0
0 0  0
0 0  0
0 0  0
0 0  0
0 0  0
0 0  0
0 0  0
0 0  0
0 0  0
0 0  0
0 0  0
0 0  0
0 0  0
0 0  0
0 0  0
0 0  0
0 0  0
0 0  0
0 0  0
0 0  0
0 0  0
0 0  0
0 0  0
0 0  0
0 0  0
0 0  0
0 0  0
0 0  0
0 0  0
-0.032481 -0.484516  0
-0.009297 -0.484516  0
-0.0110009 -0.540181  0
-0.0560827 -0.527894  0
-0.0218978 -0.527894  0
0 0  0
0 0  0
0 0  0
0 0  0
0 0  0
0 0  0
0 0  0
0 0  0
0 0  0
0 0  0
0 0  0
0 0  0
0 0  0
0 0  0
0 0  0
0 0  0
0 0  0
0 0  0
0 0  0
0 0  0
0 0  0
0 0  0
0 0  0
0 0  0
0 0  0
0 0  0
0 0  0
0 0  0
0 0  0
0 0  0
0 0  0
0 0  0
0 0  0
0 0  0
0 0  0
0 0  0
0 0  0
0 0  0
0 0  0
0 0  0
0 0  0
0 0  0
0 0  0
0 0  0
0 0  0
0 0  0
0 0  0
0 0  0
0 0  0
0 0  0
0 0  0
0 0  0
0 0  0
0 0  0
0 0  0
0 0  0
0 0  0
0 0  0
0 0  0
0 0  0
0 0  0
0 0  0
0 0  0
0 0  0
0 0  0
0 0  0
0 0  0
0 0  0
0 0  0
0 0  0
0 0  0
0 0  0
0 0  0
0 0  0
0 0  0
0 0  0
0 0  0
0 0  0
0 0  0
0 0  0
0 0  0
0 0  0
0 0  0
0 0  0
0 0  0
0 0  0
0 0  0
0 0  0
0 0  0
0 0  0
0 0  0
0 0  0
0 0  0
0 0  0
0 0  0
0 0  0
0 0  0
0 0  0
0 0  0
0 0  0
0 0  0
0 0  0
0 0  0
0 0  0
0 0  0
0 0  0
0 0  0
0 0  0
0 0  0
0 0  0
0 0  0
0 0  0
0 0  0
0 0  0
0 0  0
0 0  0
0 0  0
0 0  0
0 0  0
0 0  0
0 0  0
0 0  0
0 0  0
0 0  0
0 0  0
0 0  0
0 0  0
0 0  0
0 0  0
0 0  0
0 0  0
0 0  0
0 0  0
0 0  0
0 0  0
0 0  0
0 0  0
0 0  0
0 0  0
0 0  0
0 0  0
0 0  0
0 0  0
0 0  0
0 0  0
0 0  0
0 0  0
0 0  0
0 0  0
0 0  0
0 0  0
0 0  0
0 0  0
0 0  0
0 0  0
0 0  0
0 0  0
0 0  0
0 0  0
0 0  0
0 0  0
0 0  0
0 0  0
0 0  0
0 0  0
0 0  0
0 0  0
0 0  0
0 0  0
0 0  0
0 0  0
0 0  0
0 0  0
0 0  0
0 0  0
0 0  0
0 0  0
0 0  0
0 0  0
0 0  0
0 0  0
0 0  0
0 0  0
0 0  0
0 0  0
0 0  0
0 0  0
0 0  0
0 0  0
0 0  0
0 0  0
0 0  0
0 0  0
0 0  0
0 0  0
0 0  0
0 0  0
0 0  0
0 0  0
0 0  0
0 0  0
0 0  0
0 0  0
0 0  0
0 0  0
0 0  0
0 0  0
0 0  0
0 0  0
0 0  0
0 0  0
0 0  0
0 0  0
0 0  0
0 0  0
0 0  0
0 0  0
0 0  0
0 0  0
0 0  0
0 0  0
0 0  0
0 0  0
0 0  0
0 0  0
0 0  0
0 0  0
0 0  0
0 0  0
0 0  0
0 0  0
0 0  0
0 0  0
0 0  0
0 0  0
0 0  0
0 0  0
0 0  0
0 0  0
0 0  0
0 0  0
0 0  0
0 0  0
0 0  0
0 0  0
0 0  0
0 0  0
0 0  0
0 0  0
0 0  0
0 0  0
0 0  0
0 0  0
0 0  0
0 0  0
0 0  0
0 0  0
0 0  0
0 0  0
0 0  0
0 0  0
0 0  0
0 0  0
0 0  0
0 0  0
0 0  0
0 0  0
0 0  0
0 0  0
0 0  0
0 0  0
0 0  0
0 0  0
0 0  0
0 0  0
0 0  0
0 0  0
0 0  0
0 0  0
0 0  0
0 0  0
0 0  0
0 0  0
0 0  0
0 0  0
0 0  0
0 0  0
0 0  0
0 0  0
0 0  0
0 0  0
0 0  0
0 0  0
0 0  0
0 0  0
0 0  0
0 0  0
0 0  0
0 0  0
0 0  0
0 0  0
0 0  0
0 0  0
0 0  0
0 0  0
0 0  0
0 0  0
0 0  0
0 0  0
0 0  0
0 0  0
0 0  0
0 0  0
0 0  0
0 0  0
0 0  0
0 0  0
0 0  0
0 0  0
0 0  0
0 0  0
0 0  0
0 0  0
0 0  0
0 0  0
0 0  0
0 0  0
0 0  0
0 0  0
0 0  0
0 0  0
0 0  0
0 0  0
0 0  0
0 0  0
0 0  0
0 0  0
0 0  0

SCALARS pressure double 1
LOOKUP_TABLE default
4.04727
4.04778
4.04885
4.05048
4.05269
4.05548
4.05884
4.06278
4.06726
4.07224
4.07767
4.08343
4.08941
4.09541
4.10122
4.10657
4.11118
4.11476
4.11704
4.11784
4.11704
4.11463
4.11074
4.10555
4.09933
4.0924
4.08507
4.07762
4.07036
4.06355
4.05742
4.05223
4.04821
4.04561
4.04467
4.04565
4.04878
4.05435
4.06282
4.07326
3.83125
3.83177
3.83283
3.83447
3.83668
3.83948
3.84286
3.84683
3.85136
3.85641
3.86194
3.86785
3.87401
3.88024
3.88631
3.89195
3.89685
3.90069
3.90318
3.90409
3.90329
3.90077
3.89667
3.89121
3.8847
3.87745
3.8698
3.86207
3.85454
3.84746
3.84108
3.83563
3.83135
3.82848
3.82726
3.82795
3.83078
3.836
3.84408
3.85429
3.59926
3.59977
3.60084
3.60247
3.60469
3.60749
3.6109
3.61491
3.61952
3.62471
3.63044
3.63662
3.64314
3.64982
3.65644
3.66268
3.66819
3.67259
3.6755
3.67664
3.67584
3.6731
3.66856
3.66253
3.65537
3.64747
3.6392
3.63089
3.62281
3.61523
3.60835
3.6024
3.59759
3.59418
3.59241
3.59256
3.59484
3.59949
3.60691
3.6163
3.35131
3.35182
3.35287
3.3545
3.35671
3.35952
3.36294
3.36701
3.37173
3.37709
3.38309
3.38967
3.39672
3.4041
3.41155
3.41875
3.42525
3.43057
3.43421
3.43575
3.43495
3.43181
3.42655
3.41958
3.41138
3.40246
3.39323
3.38404
3.37518
3.36685
3.35924
3.35254
3.34696
3.34273
3.34014
3.3395
3.34106
3.34508
3.35186
3.36054
3.08741
3.08791
3.08895
3.09055
3.09273
3.09553
3.09896
3.10307
3.10789
3.11346
3.11978
3.12685
3.1346
3.14292
3.15155
3.16012
3.16811
3.17485
3.17962
3.1818
3.18101
3.17724
3.17084
3.16244
3.15272
3.14234
3.13179
3.12146
3.11157
3.10231
3.09378
3.08611
3.07949
3.07415
3.07043
3.06871
3.0694
3.07279
3.07916
3.0874
2.80757
2.80806
2.80907
2.81063
2.81276
2.81551
2.81891
2.82303
2.82793
2.83368
2.84033
2.84795
2.85654
2.86603
2.87621
2.88669
2.89682
2.90569
2.91223
2.91542
2.91464
2.90988
2.90175
2.89122
2.87933
2.86697
2.85473
2.843
2.83193
2.82159
2.81199
2.80317
2.79524
2.78845
2.78319
2.78003
2.77959
2.78238
2.7886
2.79678
2.51183
2.51229
2.51325
2.51474
2.51678
2.51944
2.52276
2.52682
2.53173
2.5376
2.54454
2.55271
2.5622
2.57306
2.58518
2.59822
2.6114
2.62348
2.63278
2.6376
2.63684
2.63051
2.61966
2.60595
2.59102
2.57606
2.56177
2.54845
2.53612
2.52468
2.51397
2.50387
2.49438
2.4857
2.47834
2.47313
2.4711
2.47317
2.47954
2.4881
2.20019
2.20063
2.20152
2.2029
2.20481
2.20731
2.21047
2.21439
2.2192
2.22505
2.23215
2.24075
2.2511
2.26343
2.27786
2.29421
2.3117
2.32865
2.34241
2.34994
2.34922
2.34025
2.32501
2.30651
2.28733
2.26907
2.25243
2.23748
2.22399
2.21159
2.19986
2.18846
2.17719
2.16612
2.15582
2.14751
2.14303
2.1441
2.15098
2.16053
1.87272
1.8731
1.8739
1.87514
1.87687
1.87914
1.88204
1.88568
1.89022
1.89587
1.90289
1.91166
1.92262
1.93631
1.95324
1.97368
1.99713
2.0216
2.04284
2.05509
2.05443
2.04084
2.01824
1.99235
1.96732
1.94508
1.92598
1.90964
1.89535
1.88237
1.86995
1.85744
1.84427
1.83022
1.81573
1.8025
1.79386
1.7936
1.80196
1.81373
1.52945
1.52978
1.53046
1.53152
1.533
1.53496
1.53748
1.54069
1.54476
1.54991
1.5565
1.56498
1.57604
1.59057
1.60973
1.63472
1.66613
1.70234
1.73681
1.7577
1.7571
1.735
1.69935
1.66193
1.62914
1.60253
1.58138
1.56431
1.54996
1.53711
1.52466
1.51154
1.49669
1.47918
1.45876
1.43728
1.42081
1.41934
1.43275
1.44977
1.17045
1.17071
1.17124
1.17208
1.17325
1.17482
1.17685
1.17947
1.18282
1.18715
1.19282
1.20035
1.21059
1.22482
1.24499
1.27392
1.31491
1.36932
1.42882
1.4662
1.46568
1.42724
1.36681
1.31148
1.26941
1.23914
1.21727
1.20083
1.18761
1.17598
1.16453
1.15184
1.13618
1.11538
1.08716
1.05135
1.01729
1.01638
1.0467
1.07671
0.795789
0.795969
0.79634
0.796921
0.797738
0.798832
0.800261
0.802113
0.804517
0.807669
0.811877
0.817637
0.825775
0.837732
0.856101
0.885637
0.934756
1.01544
1.12706
1.19658
1.19613
1.12574
1.01354
0.93233
0.882454
0.851942
0.832309
0.818673
0.808228
0.799188
0.790134
0.779528
0.765155
0.743265
0.707282
0.647623
0.564922
0.569816
0.654477
0.714162
0.405562
0.405654
0.405843
0.406141
0.40656
0.407122
0.407861
0.408822
0.41008
0.411746
0.414003
0.417156
0.421752
0.428842
0.440638
0.462315
0.507372
0.613339
0.849766
0.978548
0.978195
0.848762
0.612121
0.506237
0.460664
0.438418
0.425915
0.417885
0.411983
0.406932
0.401779
0.395422
0.385991
0.369379
0.334755
0.248396
0.00754935
0.0297483
0.289487
0.402228
-1.48984e-05
-1.52523e-05
-1.5673e-05
-1.62692e-05
-1.70693e-05
-1.80984e-05
-1.92952e-05
-2.0712e-05
-2.23138e-05
-2.40419e-05
-2.57713e-05
-2.72316e-05
-2.77372e-05
-2.54754e-05
-1.313e-05
0.000109447
0.0026625
0.050369
0.647237
0.850931
0.850609
0.646909
0.0495699
0.00326118
1.42115e-05
-0.000166808
-0.000221719
-0.000278102
-0.000349416
-0.000448719
-0.000598773
-0.000845582
-0.00128229
-0.00204835
-0.00308243
-0.0115915
0
0
0.0341234
0.136551
0
0
0
0
0
0
0
0
0
0
0
0
0
0
0
0
0
0
0.232514
0.688238
0.68854
0.232942
0
0
0
0
0
0
0
0
0
0
0
0
0
0
0
0
0.0203683
-0.0205145
0
0
0
0
0
0
0
0
0
0
0
0
0
0
0
0
0
-0.000892704
0.232146
0.409084
0.410278
0.235183
-0.000656512
0
0
0
0
0
0
0
0
0
0
0
0
0
0
0
0
0
0
0
0
0
0
0
0
0
0
0
0
0
0
0
0
0
0
-0.00287643
0.138207
0.232037
0.233705
0.142088
-0.000193259
0
0
0
0
0
0
0
0
0
0
0
0
0
0
0
0
0
0
0
0
0
0
0
0
0
0
0
0
0
0
0
0
0
0
-0.0071314
0.0757637
0.130385
0.133368
0.0832969
8.78598e-05
0
0
0
0
0
0
0
0
0
0
0
0
0
0
0
0
0
0
0
0
0
0
0
0
0
0
0
0
0
0
0
0
0
0
-0.0138102
0.0256133
0.0642487
0.0699042
0.0416703
-2.39291e-05
0
0
0
0
0
0
0
0
0
0
0
0
0
0
0
0
0
0
0
0
0
0
0
0
0
0
0
0
0
0
0
0
0
0
-0.106459
-0.0424435
0.0140665
0.0243747
-0.000710596
-0.00209752
0
0
0
0
0
0
0
0
0
0
0
0
0
0
0
0
0
0
0
0
0
0
0
0
0
0
0
0
0
0
0
0
0
0
0
-0.118726
-0.00552864
5.30108e-05
0
0
0
0
0
0
0
0
0
0
0
0
0
0
0
0
0
0
0
0
0
0
0
0
0
0
0
0
0
0
0
0
0
0
0
0
0
0
0
0
0
0
0
0
0
0
0
0
0
0
0
0
0
0
0
0
0
0
0
0
0
0
0
0
0
0
0
0
0
0
0
0
0
0
0
0
0
0
0
0
0
0
0
0
0
0
0
0
0
0
0
0
0
0
0
0
0
0
0
0
0
0
0
0
0
0
0
0
0
0
0
0
0
0
0
0
0
0
0
0
0
0
0
0
0
0
0
0
0
0
0
0
0
0
0
0
0
0
0
0
0
0
0
0
0
0
0
0
0
0
0
0
0
0
0
0
0
0
0
0
0
0
0
0
0
0
0
0
0
0
0
0
0
0
0
0
0
0
0
0
0
0
0
0
0
0
0
0
0
0
0
0
0
0
0
0
0
0
0
0
0
0
0
0
0
0
0
0
0
0
0
0
0
0
0
0
0
0
0
0
0
0
0
0
0
0
0
0
0
0
0
0
0
0
0
0
0
0
0
0
0
0
0
0
0
0
0
0
0
0
0
0
0
0
0
0
0
0
0
0
0
0
0
0
0
0
0
0
0
0
0
0
0
0
0
0
0
0
0
0
0
0
0
0
0
0
0
0
0
0
0
0
0
0
0
0
0
0
0
0
0
0
0
0
0
0
0
0
0
0
0
0
0
0
0
0
0
0
0
0
0
0
0
0
0
0
0
0
0
0
0
0
0
0
0
0
0
0
0
0
0
0
0
0
0
0
0
0
0
0
0
0
0
0
0
0
0
0
0
0
0
0
0
0
0
0
0
0
0
0
0
0
0
0
0
0
0
0
0
SCALARS rhs double 1
LOOKUP_TABLE default
-5.52149
-5.46029
-5.45823
-5.4567
-5.45532
-5.45407
-5.45295
-5.45195
-5.45105
-5.45024
-5.44952
-5.44887
-5.44829
-5.44777
-5.4473
-5.44688
-5.44649
-5.44613
-5.4458
-5.44547
-5.44516
-5.44486
-5.44457
-5.44429
-5.44403
-5.4438
-5.44361
-5.44346
-5.44337
-5.44335
-5.44339
-5.44352
-5.44375
-5.44414
-5.44475
-5.44568
-5.44622
-5.44294
-5.47616
-5.79243
-0.458468
-0.401085
-0.40043
-0.400166
-0.399928
-0.399715
-0.399524
-0.399354
-0.399201
-0.399066
-0.398947
-0.398842
-0.398751
-0.398673
-0.398607
-0.398553
-0.39851
-0.398475
-0.398445
-0.398416
-0.398388
-0.398359
-0.398334
-0.398317
-0.398317
-0.39834
-0.398393
-0.398483
-0.398616
-0.398796
-0.399027
-0.399316
-0.399671
-0.400109
-0.400658
-0.401268
-0.400801
-0.394988
-0.419567
-0.742764
-0.453678
-0.399223
-0.398624
-0.398394
-0.398187
-0.398001
-0.397835
-0.397687
-0.397555
-0.397439
-0.397337
-0.397248
-0.397172
-0.39711
-0.39706
-0.397022
-0.396995
-0.396976
-0.39696
-0.396942
-0.396918
-0.39689
-0.396861
-0.39684
-0.396837
-0.39686
-0.396917
-0.397015
-0.397157
-0.397346
-0.397584
-0.39787
-0.398201
-0.398572
-0.398968
-0.399234
-0.39794
-0.38987
-0.408328
-0.690381
-0.448591
-0.3976
-0.397055
-0.396853
-0.396672
-0.396509
-0.396364
-0.396235
-0.39612
-0.39602
-0.395932
-0.395858
-0.395796
-0.395749
-0.395715
-0.395695
-0.395687
-0.395687
-0.395687
-0.395678
-0.395656
-0.395619
-0.395578
-0.395544
-0.395531
-0.395552
-0.395613
-0.39572
-0.395875
-0.396078
-0.396328
-0.396616
-0.396928
-0.397239
-0.397498
-0.397491
-0.395756
-0.387253
-0.40402
-0.661007
-0.442911
-0.395875
-0.395389
-0.395217
-0.395063
-0.394925
-0.394802
-0.394693
-0.394597
-0.394513
-0.394442
-0.394383
-0.394337
-0.394306
-0.394291
-0.394294
-0.394312
-0.394339
-0.394363
-0.394368
-0.394341
-0.394285
-0.394217
-0.39416
-0.394134
-0.394152
-0.394222
-0.394345
-0.394522
-0.39475
-0.395023
-0.395329
-0.395642
-0.395921
-0.396092
-0.395919
-0.394179
-0.38744
-0.407608
-0.651537
-0.436721
-0.39407
-0.393646
-0.393507
-0.393381
-0.39327
-0.39317
-0.393082
-0.393005
-0.392939
-0.392883
-0.39284
-0.392811
-0.392799
-0.392807
-0.392839
-0.392894
-0.392964
-0.393027
-0.39305
-0.393009
-0.392911
-0.392793
-0.392697
-0.392653
-0.392673
-0.392759
-0.39291
-0.393122
-0.393388
-0.393703
-0.394048
-0.394393
-0.394685
-0.394839
-0.39463
-0.393259
-0.390507
-0.420577
-0.662979
-0.430104
-0.392208
-0.39185
-0.391744
-0.391648
-0.391563
-0.391487
-0.391421
-0.391363
-0.391315
-0.391276
-0.391249
-0.391237
-0.391244
-0.39128
-0.391351
-0.391463
-0.391604
-0.391738
-0.391794
-0.391718
-0.39153
-0.391317
-0.391159
-0.391095
-0.391128
-0.391247
-0.391442
-0.391703
-0.392026
-0.392402
-0.392817
-0.393235
-0.393598
-0.393816
-0.393692
-0.392778
-0.394578
-0.438586
-0.691602
-0.42315
-0.390312
-0.390023
-0.389949
-0.389884
-0.389826
-0.389775
-0.38973
-0.389693
-0.389662
-0.389639
-0.389627
-0.389631
-0.38966
-0.389733
-0.389857
-0.390049
-0.390335
-0.390621
-0.390758
-0.390598
-0.390207
-0.389806
-0.389552
-0.389473
-0.389542
-0.389718
-0.389975
-0.390302
-0.390698
-0.391163
-0.391685
-0.392231
-0.392735
-0.393087
-0.393074
-0.392077
-0.39437
-0.448185
-0.723637
-0.415947
-0.388404
-0.388186
-0.388146
-0.388111
-0.38808
-0.388053
-0.388031
-0.388012
-0.387998
-0.387991
-0.387995
-0.388019
-0.388075
-0.388195
-0.388438
-0.388855
-0.389302
-0.389822
-0.3904
-0.39004
-0.389138
-0.388342
-0.38792
-0.387832
-0.387968
-0.388227
-0.388561