# vtk DataFile Version 4.0
Nusif Fluid VTK output
ASCII
DATASET STRUCTURED_POINTS
DIMENSIONS 40 30 1
ORIGIN 0 0 0 
SPACING 0.2 0.2 1
POINT_DATA 1200 

VECTORS velocity double
0.000202463 -0.00142415  0
0.00067208 -0.00142527  0
0.00121324 -0.0014303  0
0.00177181 -0.00143919  0
0.00235533 -0.00145205  0
0.00297165 -0.00146908  0
0.00362909 -0.00149051  0
0.00433653 -0.00151665  0
0.00510354 -0.00154788  0
0.00594052 -0.00158461  0
0.00685881 -0.00162737  0
0.00787089 -0.00167674  0
0.00899047 -0.00173338  0
0.0102328 -0.00179808  0
0.0116146 -0.00187169  0
0.0131547 -0.00195519  0
0.0148737 -0.00204966  0
0.0167948 -0.00215631  0
0.0189435 -0.00227645  0
0.0213481 -0.00241153  0
0.0240401 -0.00256309  0
0.0270539 -0.00273273  0
0.0304273 -0.00292214  0
0.0342015 -0.00313299  0
0.0384208 -0.0033668  0
0.0431324 -0.00362497  0
0.0483863 -0.00390866  0
0.054234 -0.00421847  0
0.0607279 -0.0045546  0
0.0679205 -0.00491689  0
0.075864 -0.00530528  0
0.084612 -0.0057212  0
0.0942258 -0.00617091  0
0.104791 -0.0066727  0
0.116459 -0.00727313  0
0.129537 -0.00808237  0
0.144647 -0.00930569  0
0.1621 -0.0104259  0
0.169562 0.00068641  0
0.0838684 0.0827295  0
0.000201165 -0.00420575  0
0.000665748 -0.00421074  0
0.00119935 -0.00422724  0
0.00175013 -0.00425515  0
0.00232553 -0.00429482  0
0.00293329 -0.0043468  0
0.00358162 -0.00441184  0
0.00427929 -0.00449086  0
0.00503572 -0.00458496  0
0.00586117 -0.00469545  0
0.00676684 -0.00482386  0
0.00776503 -0.00497193  0
0.0088693 -0.0051417  0
0.0100946 -0.00533546  0
0.0114577 -0.0055558  0
0.0129769 -0.00580565  0
0.0146728 -0.00608825  0
0.0165682 -0.00640723  0
0.0186884 -0.00676656  0
0.0210617 -0.00717055  0
0.0237191 -0.00762386  0
0.026695 -0.00813137  0
0.0300272 -0.00869816  0
0.0337569 -0.00932928  0
0.0379287 -0.0100295  0
0.0425904 -0.0108031  0
0.0477926 -0.0116536  0
0.0535877 -0.012583  0
0.060029 -0.0135917  0
0.0671693 -0.0146787  0
0.075059 -0.0158425  0
0.0837456 -0.0170841  0
0.0932734 -0.018415  0
0.103688 -0.0198737  0
0.115045 -0.0215616  0
0.127421 -0.0237125  0
0.140856 -0.0266865  0
0.154298 -0.0284053  0
0.154547 0.00649088  0
0.0741676 0.238533  0
0.000196937 -0.00691186  0
0.000649984 -0.00692232  0
0.00116879 -0.00695157  0
0.00170431 -0.00699949  0
0.00226378 -0.00706666  0
0.00285474 -0.00715403  0
0.00348515 -0.00726284  0
0.00416355 -0.00739461  0
0.0048991 -0.00755117  0
0.00570179 -0.0077347  0
0.00658251 -0.00794772  0
0.00755323 -0.00819315  0
0.00862714 -0.00847435  0
0.00981887 -0.00879511  0
0.0111446 -0.00915976  0
0.0126224 -0.00957314  0
0.0142723 -0.0100407  0
0.0161167 -0.0105684  0
0.0181803 -0.0111629  0
0.020491 -0.0118315  0
0.0230794 -0.0125819  0
0.0259797 -0.0134224  0
0.0292295 -0.0143618  0
0.0328701 -0.0154085  0
0.0369467 -0.016571  0
0.041508 -0.0178569  0
0.0466061 -0.0192723  0
0.0522954 -0.0208208  0
0.0586315 -0.0225032  0
0.0656689 -0.0243167  0
0.0734576 -0.0262548  0
0.0820384 -0.0283108  0
0.0914349 -0.0304844  0
0.101643 -0.0327983  0
0.112609 -0.0353319  0
0.124195 -0.0382757  0
0.136063 -0.0417987  0
0.146856 -0.0418992  0
0.145339 0.0168818  0
0.0694868 0.380002  0
0.000189843 -0.00959684  0
0.000625022 -0.00961267  0
0.00112201 -0.00965429  0
0.00163503 -0.00972157  0
0.00217099 -0.00981534  0
0.00273712 -0.00993692  0
0.00334106 -0.010088  0
0.00399097 -0.0102707  0
0.00469565 -0.0104876  0
0.00546465 -0.0107417  0
0.00630842 -0.0110364  0
0.00723843 -0.0113759  0
0.00826736 -0.0117647  0
0.00940925 -0.0122082  0
0.0106797 -0.0127124  0
0.012096 -0.0132839  0
0.0136775 -0.0139303  0
0.0154459 -0.0146601  0
0.0174253 -0.0154826  0
0.0196427 -0.016408  0
0.0221281 -0.0174472  0
0.0249151 -0.0186123  0
0.0280411 -0.0199154  0
0.0315475 -0.0213694  0
0.0354802 -0.0229867  0
0.0398891 -0.0247788  0
0.0448285 -0.0267551  0
0.0503565 -0.0289222  0
0.0565329 -0.0312814  0
0.0634174 -0.0338274  0
0.0710645 -0.0365468  0
0.0795156 -0.0394175  0
0.0887854 -0.0424109  0
0.0988391 -0.0455001  0
0.109554 -0.0486782  0
0.120655 -0.0519825  0
0.131592 -0.0552644  0
0.140955 -0.0529555  0
0.139307 0.0267365  0
0.0668171 0.514122  0
0.000179976 -0.0122537  0
0.000591198 -0.0122748  0
0.00105965 -0.0123282  0
0.00154322 -0.012414  0
0.00204843 -0.012533  0
0.00258206 -0.0126872  0
0.00315133 -0.0128785  0
0.00376393 -0.0131097  0
0.00442814 -0.0133839  0
0.00515298 -0.0137051  0
0.0059483 -0.0140775  0
0.00682492 -0.0145064  0
0.00779482 -0.0149976  0
0.00887126 -0.0155579  0
0.010069 -0.0161948  0
0.0114044 -0.0169169  0
0.012896 -0.0177339  0
0.0145644 -0.0186565  0
0.0164325 -0.0196967  0
0.0185264 -0.0208678  0
0.0208752 -0.0221841  0
0.0235115 -0.0236612  0
0.0264723 -0.0253155  0
0.0297988 -0.0271644  0
0.0335374 -0.0292249  0
0.0377395 -0.0315136  0
0.0424626 -0.0340447  0
0.0477691 -0.0368288  0
0.0537262 -0.0398699  0
0.0604033 -0.043162  0
0.0678674 -0.0466849  0
0.076174 -0.0503988  0
0.0853519 -0.0542389  0
0.0953745 -0.05811  0
0.106113 -0.0618836  0
0.117259 -0.0653853  0
0.128196 -0.0680971  0
0.13759 -0.0632411  0
0.137654 0.0342445  0
0.0668191 0.645578  0
0.000167465 -0.014876  0
0.000548967 -0.0149021  0
0.000982563 -0.0149666  0
0.00143016 -0.0150696  0
0.00189776 -0.0152124  0
0.00239168 -0.0153969  0
0.00291856 -0.0156259  0
0.00348552 -0.0159023  0
0.00410024 -0.0162302  0
0.00477105 -0.016614  0
0.00550706 -0.0170591  0
0.00631832 -0.0175716  0
0.0072159 -0.0181585  0
0.00821212 -0.0188279  0
0.00932068 -0.019589  0
0.0105569 -0.0204521  0
0.0119379 -0.0214288  0
0.0134831 -0.0225323  0
0.015214 -0.0237772  0
0.0171553 -0.0251796  0
0.0193347 -0.0267573  0
0.0217836 -0.02853  0
0.0245379 -0.0305184  0
0.0276382 -0.0327448  0
0.031131 -0.0352321  0
0.0350692 -0.038003  0
0.0395132 -0.0410785  0
0.0445312 -0.0444758  0
0.0501996 -0.0482047  0
0.0566024 -0.0522631  0
0.0638276 -0.0566291  0
0.0719614 -0.061251  0
0.0810739 -0.066033  0
0.0911943 -0.0708149  0
0.102266 -0.0753448  0
0.114071 -0.079231  0
0.126111 -0.0815845  0
0.137314 -0.0747066  0
0.140994 0.0376103  0
0.0697331 0.779952  0
0.000152482 -0.0174577  0
0.000498908 -0.0174884  0
0.000891802 -0.0175631  0
0.00129737 -0.017682  0
0.00172107 -0.0178465  0
0.00216858 -0.018059  0
0.00264594 -0.0183223  0
0.00315957 -0.0186403  0
0.00371644 -0.0190173  0
0.00432408 -0.0194585  0
0.00499074 -0.0199701  0
0.00572553 -0.0205592  0
0.00653848 -0.0212338  0
0.00744076 -0.0220032  0
0.00844483 -0.0228782  0
0.00956462 -0.0238706  0
0.0108158 -0.024994  0
0.012216 -0.0262638  0
0.0137853 -0.0276971  0
0.0155462 -0.029313  0
0.0175248 -0.0311328  0
0.0197505 -0.03318  0
0.0222574 -0.0354803  0
0.0250851 -0.0380615  0
0.0282791 -0.0409529  0
0.0318931 -0.044185  0
0.0359898 -0.0477876  0
0.0406428 -0.0517881  0
0.0459388 -0.0562073  0
0.0519789 -0.0610537  0
0.0588793 -0.0663144  0
0.0667701 -0.0719404  0
0.0757884 -0.0778246  0
0.0860625 -0.0837682  0
0.0976837 -0.0894343  0
0.110652 -0.0942653  0
0.124789 -0.0970784  0
0.139479 -0.0894555  0
0.148265 0.0355431  0
0.0748426 0.922352  0
0.000135232 -0.0199931  0
0.000441708 -0.0200281  0
0.000788614 -0.020112  0
0.0011467 -0.0202452  0
0.00152077 -0.0204291  0
0.00191583 -0.0206666  0
0.0023372 -0.0209608  0
0.00279055 -0.0213159  0
0.003282 -0.0217368  0
0.0038182 -0.0222294  0
0.00440642 -0.0228005  0
0.00505467 -0.023458  0
0.00577181 -0.024211  0
0.00656769 -0.0250699  0
0.00745332 -0.0260467  0
0.00844101 -0.0271549  0
0.00954466 -0.0284098  0
0.01078 -0.0298288  0
0.0121648 -0.0314313  0
0.0137196 -0.0332394  0
0.0154676 -0.0352778  0
0.017436 -0.0375739  0
0.0196563 -0.0401584  0
0.0221655 -0.0430649  0
0.0250073 -0.0463301  0
0.0282344 -0.0499935  0
0.03191 -0.054096  0
0.0361114 -0.0586787  0
0.0409338 -0.0637795  0
0.0464949 -0.0694271  0
0.0529408 -0.0756318  0
0.0604516 -0.0823691  0
0.069246 -0.0895531  0
0.0795832 -0.0969954  0
0.0917555 -0.104345  0
0.106069 -0.110981  0
0.122815 -0.11559  0
0.142017 -0.109181  0
0.156764 0.0273914  0
0.0806619 1.07568  0
0.000115957 -0.0224775  0
0.000378161 -0.0225163  0
0.000674425 -0.0226083  0
0.000980221 -0.0227538  0
0.00129963 -0.0229548  0
0.00163692 -0.0232139  0
0.00199661 -0.0235349  0
0.00238355 -0.0239222  0
0.00280293 -0.0243813  0
0.0032604 -0.0249184  0
0.00376216 -0.0255411  0
0.00431501 -0.026258  0
0.00492649 -0.027079  0
0.00560497 -0.0280156  0
0.0063598 -0.0290808  0
0.00720151 -0.0302894  0
0.00814194 -0.0316585  0
0.00919452 -0.033207  0
0.0103746 -0.0349569  0
0.0116997 -0.0369326  0
0.0131902 -0.039162  0
0.0148698 -0.0416765  0
0.0167664 -0.0445114  0
0.0189133 -0.0477066  0
0.0213505 -0.0513062  0
0.0241272 -0.0553597  0
0.0273044 -0.0599211  0
0.0309592 -0.0650484  0
0.0351903 -0.070802  0
0.0401266 -0.0772406  0
0.0459378 -0.0844139  0
0.0528493 -0.0923478  0
0.0611612 -0.101019  0
0.0712702 -0.110314  0
0.083687 -0.119954  0
0.0990473 -0.129384  0
0.118111 -0.137335  0
0.141492 -0.134358  0
0.162165 0.0128105  0
0.0850086 1.23919  0
9.493e-05 -0.0249067  0
0.000309161 -0.0249488  0
0.000550826 -0.0250476  0
0.000800237 -0.0252035  0
0.0010607 -0.0254186  0
0.00133569 -0.0256959  0
0.00162888 -0.0260392  0
0.00194419 -0.0264535  0
0.00228584 -0.0269443  0
0.00265841 -0.0275186  0
0.0030669 -0.0281843  0
0.00351682 -0.0289506  0
0.00401426 -0.0298283  0
0.00456598 -0.0308295  0
0.00517953 -0.0319682  0
0.0058634 -0.0332605  0
0.00662716 -0.0347245  0
0.0074817 -0.036381  0
0.00843942 -0.0382535  0
0.00951461 -0.040369  0
0.0107239 -0.0427581  0
0.0120868 -0.0454556  0
0.0136266 -0.0485014  0
0.0153711 -0.0519407  0
0.0173547 -0.0558256  0
0.0196202 -0.0602152  0
0.0222221 -0.0651774  0
0.0252316 -0.0707889  0
0.028743 -0.0771367  0
0.0328852 -0.084317  0
0.0378366 -0.0924328  0
0.0438494 -0.101586  0
0.0512843 -0.111861  0
0.0606555 -0.123285  0
0.072683 -0.135759  0
0.0883206 -0.148909  0
0.108669 -0.161555  0
0.134458 -0.163642  0
0.160036 -0.00848956  0
0.0856587 1.40769  0
7.24745e-05 -0.0272772  0
0.000235741 -0.0273221  0
0.000419638 -0.0274263  0
0.000609379 -0.0275904  0
0.000807467 -0.0278167  0
0.00101653 -0.0281083  0
0.00123935 -0.0284693  0
0.00147888 -0.0289048  0
0.00173829 -0.0294207  0
0.00202102 -0.0300242  0
0.00233083 -0.0307236  0
0.00267183 -0.0315288  0
0.00304858 -0.0324509  0
0.00346611 -0.0335027  0
0.00393005 -0.0346991  0
0.00444671 -0.0360568  0
0.00502317 -0.0375951  0
0.0056675 -0.0393359  0
0.00638889 -0.0413044  0
0.00719796 -0.0435292  0
0.00810703 -0.0460431  0
0.00913069 -0.0488839  0
0.0102863 -0.0520952  0
0.0115952 -0.055727  0
0.0130835 -0.059838  0
0.0147848 -0.0644964  0
0.0167425 -0.0697827  0
0.0190148 -0.0757921  0
0.0216815 -0.0826385  0
0.0248555 -0.0904582  0
0.0287012 -0.0994154  0
0.0334638 -0.109706  0
0.039519 -0.121558  0
0.0474491 -0.135217  0
0.0581585 -0.150892  0
0.0729984 -0.168581  0
0.093753 -0.187313  0
0.122137 -0.196384  0
0.157589 -0.0411039  0
0.0883788 1.57956  0
4.91706e-05 -0.0295867  0
0.000159706 -0.0296338  0
0.000283968 -0.0297419  0
0.000412115 -0.029912  0
0.000545829 -0.0301464  0
0.000686873 -0.0304484  0
0.000837097 -0.0308221  0
0.000998465 -0.0312728  0
0.00117308 -0.0318067  0
0.00136321 -0.0324311  0
0.00157133 -0.0331548  0
0.00180013 -0.0339878  0
0.00205257 -0.0349415  0
0.00233194 -0.0360295  0
0.00264187 -0.0372668  0
0.0029864 -0.0386709  0
0.00337009 -0.0402618  0
0.00379809 -0.0420622  0
0.00427621 -0.0440984  0
0.00481118 -0.0464001  0
0.00541078 -0.0490018  0
0.00608421 -0.0519433  0
0.00684245 -0.0552707  0
0.00769898 -0.0590378  0
0.00867067 -0.0633082  0
0.00977921 -0.068157  0
0.0110533 -0.0736749  0
0.0125323 -0.0799722  0
0.0142717 -0.0871855  0
0.0163526 -0.0954873  0
0.0188983 -0.105099  0
0.0221034 -0.116311  0
0.0262875 -0.129513  0
0.0319987 -0.145224  0
0.0402202 -0.164136  0
0.0527773 -0.187055  0
0.0731162 -0.214253  0
0.107558 -0.23659  0
0.163913 -0.0970257  0
0.0992526 1.76503  0
2.77467e-05 -0.0318364  0
8.93323e-05 -0.031885  0
0.000157834 -0.0319956  0
0.000228441 -0.0321695  0
0.000302079 -0.032409  0
0.000379712 -0.0327175  0
0.000462339 -0.0330992  0
0.000551022 -0.0335593  0
0.000646891 -0.0341044  0
0.000751165 -0.0347418  0
0.000865159 -0.0354804  0
0.000990308 -0.0363304  0
0.00112818 -0.0373036  0
0.00128051 -0.0384136  0
0.00144922 -0.0396759  0
0.00163644 -0.0411083  0
0.0018446 -0.0427311  0
0.00207638 -0.0445677  0
0.00233484 -0.0466446  0
0.00262354 -0.0489926  0
0.00294654 -0.051647  0
0.00330862 -0.0546488  0
0.00371543 -0.0580456  0
0.00417395 -0.0618934  0
0.0046929 -0.0662587  0
0.00528359 -0.0712212  0
0.00596111 -0.0768779  0
0.00674634 -0.083349  0
0.00766914 -0.0907865  0
0.00877399 -0.0993877  0
0.0101301 -0.109416  0
0.0118509 -0.121236  0
0.0141334 -0.13537  0
0.0173487 -0.152609  0
0.0222679 -0.174208  0
0.0306884 -0.202276  0
0.0473644 -0.240363  0
0.0860042 -0.287878  0
0.174915 -0.195319  0
0.118229 1.98036  0
2.24427e-05 -0.0329693  0
6.7683e-05 -0.0330188  0
0.000113901 -0.033131  0
0.00016169 -0.0333072  0
0.000211699 -0.0335498  0
0.000264602 -0.0338622  0
0.000321117 -0.0342487  0
0.000382022 -0.0347146  0
0.000448164 -0.0352664  0
0.000520471 -0.0359118  0
0.000599967 -0.0366595  0
0.00068779 -0.03752  0
0.000785219 -0.0385052  0
0.000893711 -0.0396288  0
0.00101497 -0.0409067  0
0.001151 -0.0423568  0
0.00130412 -0.0439999  0
0.00147702 -0.0458597  0
0.00167296 -0.0479632  0
0.00189563 -0.0503416  0
0.00214944 -0.0530311  0
0.00243956 -0.0560732  0
0.00277204 -0.0595168  0
0.00315444 -0.0634194  0
0.00359607 -0.0678496  0
0.00410867 -0.07289  0
0.00470741 -0.0786418  0
0.00541229 -0.0852316  0
0.00625025 -0.0928211  0
0.00725902 -0.101623  0
0.00849357 -0.111928  0
0.0100375 -0.124145  0
0.0120277 -0.13889  0
0.014711 -0.157144  0
0.0185824 -0.18062  0
0.0246657 -0.212525  0
0.0342859 -0.258567  0
0.0467474 -0.322932  0
0.11276 -0.317345  0
0.0860825 2.18359  0
4.74079e-05 -0.0164958  0
0.000149033 -0.0165208  0
0.000258854 -0.0165772  0
0.000372201 -0.0166658  0
0.00049065 -0.0167877  0
0.000615857 -0.0169447  0
0.000749536 -0.017139  0
0.000893528 -0.0173731  0
0.00104982 -0.0176505  0
0.00122059 -0.0179748  0
0.00140823 -0.0183506  0
0.00161542 -0.0187831  0
0.00184516 -0.0192782  0
0.00210085 -0.019843  0
0.00238638 -0.0204854  0
0.00270618 -0.0212144  0
0.00306542 -0.0220405  0
0.00347016 -0.0229757  0
0.0039273 -0.0240337  0
0.00444517 -0.0252301  0
0.00503338 -0.0265832  0
0.00570358 -0.028114  0
0.00647012 -0.0298472  0
0.00735048 -0.0318121  0
0.00836684 -0.0340433  0
0.00954783 -0.0365828  0
0.0109313 -0.0394824  0
0.0125685 -0.0428067  0
0.0145315 -0.0466386  0
0.0169251 -0.0510879  0
0.0199092 -0.0563047  0
0.0237419 -0.0625035  0
0.0288739 -0.0700091  0
0.0361699 -0.0793497  0
0.0473788 -0.091468  0
0.0654076 -0.108146  0
0.09091 -0.13221  0
0.102913 -0.16477  0
-1.18685 -0.188375  0
-1.23713 1.13484  0
0 0  0
0 0  0
0 0  0
0 0  0
0 0  0
0 0  0
0 0  0
0 0  0
0 0  0
0 0  0
0 0  0
0 0  0
0 0  0
0 0  0
0 0  0
0 0  0
0 0  0
7.56434e-05 -0.29708  0
-3.59047e-05 -0.29708  0
-0.000448462 -0.297267  0
-0.000728754 -0.297604  0
-0.000436088 -0.297952  0
-4.42482e-05 -0.297952  0
0 0  0
0 0  0
0 0  0
0 0  0
0 0  0
0 0  0
0 0  0
0 0  0
0 0  0
0 0  0
0 0  0
0 0  0
0 0  0
0 0  0
0 0  0
0 0  0
0 0  0
0 0  0
0 0  0
0 0  0
0 0  0
0 0  0
0 0  0
0 0  0
0 0  0
0 0  0
0 0  0
0 0  0
0 0  0
0 0  0
0 0  0
0 0  0
0 0  0
0.00159589 -0.297198  0
0.00167153 -0.594277  0
0.000151287 -0.594159  0
7.63437e-05 -0.594459  0
-4.3548e-05 -0.595164  0
-8.84964e-05 -0.595904  0
-0.00106107 -0.597641  0
-0.00101682 -0.299689  0
0 0  0
0 0  0
0 0  0
0 0  0
0 0  0
0 0  0
0 0  0
0 0  0
0 0  0
0 0  0
0 0  0
0 0  0
0 0  0
0 0  0
0 0  0
0 0  0
0 0  0
0 0  0
0 0  0
0 0  0
0 0  0
0 0  0
0 0  0
0 0  0
0 0  0
0 0  0
0 0  0
0 0  0
0 0  0
0 0  0
0 0  0
0 0  0
0.00159589 -0.589749  0
0.00319178 -0.594396  0
0.00207894 -0.594127  0
0.000143033 -0.594641  0
-0.00119085 -0.595689  0
-0.00186766 -0.596819  0
-0.00203365 -0.599378  0
-0.00101682 -0.598554  0
0 0  0
0 0  0
0 0  0
0 0  0
0 0  0
0 0  0
0 0  0
0 0  0
0 0  0
0 0  0
0 0  0
0 0  0
0 0  0
0 0  0
0 0  0
0 0  0
0 0  0
0 0  0
0 0  0
0 0  0
0 0  0
0 0  0
0 0  0
0 0  0
0 0  0
0 0  0
0 0  0
0 0  0
0 0  0
0 0  0
0 0  0
0 0  0
0.00624259 -0.581104  0
0.00918463 -0.591095  0
0.00314248 -0.592434  0
-0.000822463 -0.594757  0
-0.0026115 -0.596774  0
-0.00360996 -0.598382  0
-0.00386259 -0.599558  0
-0.00184122 -0.59813  0
0 0  0
0 0  0
0 0  0
0 0  0
0 0  0
0 0  0
0 0  0
0 0  0
0 0  0
0 0  0
0 0  0
0 0  0
0 0  0
0 0  0
0 0  0
0 0  0
0 0  0
0 0  0
0 0  0
0 0  0
0 0  0
0 0  0
0 0  0
0 0  0
0 0  0
0 0  0
0 0  0
0 0  0
0 0  0
0 0  0
0 0  0
0 0  0
0.0115867 -0.570401  0
0.0146481 -0.579269  0
0.00169484 -0.587426  0
-0.00380043 -0.594627  0
-0.00497386 -0.598264  0
-0.00513167 -0.600059  0
-0.00503687 -0.599885  0
-0.00244515 -0.599011  0
0 0  0
0 0  0
0 0  0
0 0  0
0 0  0
0 0  0
0 0  0
0 0  0
0 0  0
0 0  0
0 0  0
0 0  0
0 0  0
0 0  0
0 0  0
0 0  0
0 0  0
0 0  0
0 0  0
0 0  0
0 0  0
0 0  0
0 0  0
0 0  0
0 0  0
0 0  0
0 0  0
0 0  0
0 0  0
0 0  0
0 0  0
0 0  0
0.0151108 -0.586006  0
0.0126012 -0.553123  0
-0.007968 -0.582211  0
-0.0106474 -0.595991  0
-0.00914235 -0.601555  0
-0.00666898 -0.603406  0
-0.00543117 -0.600032  0
-0.00271558 -0.599761  0
0 0  0
0 0  0
0 0  0
0 0  0
0 0  0
0 0  0
0 0  0
0 0  0
0 0  0
0 0  0
0 0  0
0 0  0
0 0  0
0 0  0
0 0  0
0 0  0
0 0  0
0 0  0
0 0  0
0 0  0
0 0  0
0 0  0
0 0  0
0 0  0
0 0  0
0 0  0
0 0  0
0 0  0
0 0  0
0 0  0
0 0  0
0 0  0
-0.0212958 -0.57191  0
-0.0425915 -0.535503  0
-0.0320522 -0.590883  0
-0.0206417 -0.598213  0
-0.017389 -0.606253  0
-0.0150074 -0.605725  0
-0.0102193 -0.602878  0
-0.00271558 -0.300016  0
0 0  0
0 0  0
0 0  0
0 0  0
0 0  0
0 0  0
0 0  0
0 0  0
0 0  0
0 0  0
0 0  0
0 0  0
0 0  0
0 0  0
0 0  0
0 0  0
0 0  0
0 0  0
0 0  0
0 0  0
0 0  0
0 0  0
0 0  0
0 0  0
0 0  0
0 0  0
0 0  0
0 0  0
0 0  0
0 0  0
0 0  0
0 0  0
-0.0212958 -0.267752  0
-0.00963208 -0.267752  0
-0.000261864 -0.300711  0
-0.0170354 -0.299542  0
-0.0140683 -0.304317  0
-0.0164622 -0.302863  0
-0.0075037 -0.302863  0
0 0  0
0 0  0
0 0  0
0 0  0
0 0  0
0 0  0
0 0  0
0 0  0
0 0  0
0 0  0
0 0  0
0 0  0
0 0  0
0 0  0
0 0  0
0 0  0
0 0  0
0 0  0
0 0  0
0 0  0
0 0  0
0 0  0
0 0  0
0 0  0
0 0  0
0 0  0
0 0  0
0 0  0
0 0  0
0 0  0
0 0  0
0 0  0
0 0  0
0 0  0
0 0  0
0 0  0
0 0  0
0 0  0
0 0  0
0 0  0
0 0  0
0 0  0
0 0  0
0 0  0
0 0  0
0 0  0
0 0  0
0 0  0
0 0  0
0 0  0
0 0  0
0 0  0
0 0  0
0 0  0
0 0  0
0 0  0
0 0  0
0 0  0
0 0  0
0 0  0
0 0  0
0 0  0
0 0  0
0 0  0
0 0  0
0 0  0
0 0  0
0 0  0
0 0  0
0 0  0
0 0  0
0 0  0
0 0  0
0 0  0
0 0  0
0 0  0
0 0  0
0 0  0
0 0  0
0 0  0
0 0  0
0 0  0
0 0  0
0 0  0
0 0  0
0 0  0
0 0  0
0 0  0
0 0  0
0 0  0
0 0  0
0 0  0
0 0  0
0 0  0
0 0  0
0 0  0
0 0  0
0 0  0
0 0  0
0 0  0
0 0  0
0 0  0
0 0  0
0 0  0
0 0  0
0 0  0
0 0  0
0 0  0
0 0  0
0 0  0
0 0  0
0 0  0
0 0  0
0 0  0
0 0  0
0 0  0
0 0  0
0 0  0
0 0  0
0 0  0
0 0  0
0 0  0
0 0  0
0 0  0
0 0  0
0 0  0
0 0  0
0 0  0
0 0  0
0 0  0
0 0  0
0 0  0
0 0  0
0 0  0
0 0  0
0 0  0
0 0  0
0 0  0
0 0  0
0 0  0
0 0  0
0 0  0
0 0  0
0 0  0
0 0  0
0 0  0
0 0  0
0 0  0
0 0  0
0 0  0
0 0  0
0 0  0
0 0  0
0 0  0
0 0  0
0 0  0
0 0  0
0 0  0
0 0  0
0 0  0
0 0  0
0 0  0
0 0  0
0 0  0
0 0  0
0 0  0
0 0  0
0 0  0
0 0  0
0 0  0
0 0  0
0 0  0
0 0  0
0 0  0
0 0  0
0 0  0
0 0  0
0 0  0
0 0  0
0 0  0
0 0  0
0 0  0
0 0  0
0 0  0
0 0  0
0 0  0
0 0  0
0 0  0
0 0  0
0 0  0
0 0  0
0 0  0
0 0  0
0 0  0
0 0  0
0 0  0
0 0  0
0 0  0
0 0  0
0 0  0
0 0  0
0 0  0
0 0  0
0 0  0
0 0  0
0 0  0
0 0  0
0 0  0
0 0  0
0 0  0
0 0  0
0 0  0
0 0  0
0 0  0
0 0  0
0 0  0
0 0  0
0 0  0
0 0  0
0 0  0
0 0  0
0 0  0
0 0  0
0 0  0
0 0  0
0 0  0
0 0  0
0 0  0
0 0  0
0 0  0
0 0  0
0 0  0
0 0  0
0 0  0
0 0  0
0 0  0
0 0  0
0 0  0
0 0  0
0 0  0
0 0  0
0 0  0
0 0  0
0 0  0
0 0  0
0 0  0
0 0  0
0 0  0
0 0  0
0 0  0
0 0  0
0 0  0
0 0  0
0 0  0
0 0  0
0 0  0
0 0  0
0 0  0
0 0  0
0 0  0
0 0  0
0 0  0
0 0  0
0 0  0
0 0  0
0 0  0
0 0  0
0 0  0
0 0  0
0 0  0
0 0  0
0 0  0
0 0  0
0 0  0
0 0  0
0 0  0
0 0  0
0 0  0
0 0  0
0 0  0
0 0  0
0 0  0
0 0  0
0 0  0
0 0  0
0 0  0
0 0  0
0 0  0
0 0  0
0 0  0
0 0  0
0 0  0
0 0  0
0 0  0
0 0  0
0 0  0
0 0  0

SCALARS pressure double 1
LOOKUP_TABLE default
2.5384
2.53865
2.53906
2.53966
2.54045
2.54145
2.54266
2.54411
2.5458
2.54777
2.55004
2.55263
2.55559
2.55894
2.56274
2.56703
2.57186
2.57729
2.5834
2.59025
2.59794
2.60654
2.61617
2.62692
2.63892
2.65228
2.66713
2.6836
2.70183
2.72193
2.74403
2.76821
2.79453
2.82302
2.85364
2.88632
2.92093
2.95733
2.99586
3.03532
2.33911
2.33935
2.33975
2.34034
2.34112
2.3421
2.3433
2.34472
2.3464
2.34834
2.35057
2.35313
2.35605
2.35935
2.3631
2.36733
2.37209
2.37746
2.38348
2.39025
2.39784
2.40634
2.41585
2.42647
2.43833
2.45155
2.46625
2.48258
2.50066
2.52062
2.54259
2.56667
2.59293
2.62139
2.65203
2.68474
2.71931
2.75542
2.79298
2.83133
2.14043
2.14066
2.14106
2.14163
2.14239
2.14334
2.1445
2.14589
2.14752
2.1494
2.15158
2.15407
2.1569
2.16012
2.16376
2.16788
2.17252
2.17774
2.18361
2.19021
2.1976
2.20589
2.21517
2.22555
2.23714
2.25007
2.26448
2.2805
2.29828
2.31795
2.33967
2.36354
2.38967
2.4181
2.44882
2.48171
2.5165
2.55271
2.58988
2.62639
1.9424
1.94262
1.943
1.94354
1.94427
1.94518
1.9463
1.94762
1.94918
1.95099
1.95308
1.95546
1.95818
1.96127
1.96476
1.96871
1.97316
1.97817
1.98381
1.99015
1.99726
2.00523
2.01416
2.02416
2.03535
2.04786
2.06181
2.07737
2.09468
2.11391
2.13522
2.15877
2.18468
2.21305
2.24393
2.27724
2.31274
2.34995
2.38812
2.42436
1.74501
1.74522
1.74558
1.74609
1.74678
1.74764
1.74869
1.74994
1.75141
1.75311
1.75508
1.75733
1.75989
1.76281
1.76611
1.76983
1.77404
1.77878
1.78411
1.7901
1.79683
1.80438
1.81286
1.82236
1.83301
1.84493
1.85827
1.87319
1.88985
1.90845
1.92917
1.95222
1.97778
2.00603
2.0371
2.07105
2.10781
2.14709
2.18822
2.2264
1.54829
1.54848
1.5488
1.54928
1.54991
1.55071
1.55168
1.55284
1.5542
1.55578
1.5576
1.55969
1.56207
1.56477
1.56783
1.57128
1.57518
1.57958
1.58453
1.5901
1.59636
1.6034
1.6113
1.62017
1.63013
1.64132
1.65387
1.66796
1.68377
1.70152
1.72142
1.74374
1.76873
1.79669
1.82787
1.86253
1.90087
1.943
1.98867
2.03078
1.35222
1.3524
1.35269
1.35312
1.3537
1.35442
1.3553
1.35635
1.35758
1.35902
1.36067
1.36256
1.36472
1.36717
1.36995
1.37309
1.37663
1.38063
1.38513
1.3902
1.3959
1.40232
1.40954
1.41766
1.42679
1.43708
1.44866
1.46172
1.47644
1.49307
1.51187
1.53316
1.55727
1.58461
1.61561
1.65076
1.69056
1.73557
1.78614
1.83323
1.15684
1.15699
1.15725
1.15763
1.15814
1.15878
1.15955
1.16048
1.16157
1.16284
1.1643
1.16597
1.16788
1.17005
1.1725
1.17528
1.17842
1.18196
1.18595
1.19045
1.19551
1.20122
1.20765
1.21489
1.22306
1.23228
1.2427
1.2545
1.26789
1.2831
1.30046
1.3203
1.34308
1.3693
1.3996
1.43466
1.47529
1.52234
1.5766
1.62835
0.962143
0.962273
0.962496
0.962821
0.963254
0.963799
0.964464
0.965257
0.966188
0.967271
0.968519
0.969949
0.971581
0.973435
0.975537
0.977916
0.980604
0.983638
0.98706
0.990918
0.995268
1.00017
1.00571
1.01196
1.01902
1.02702
1.03609
1.0464
1.05817
1.07164
1.08714
1.10506
1.12591
1.15032
1.17909
1.21317
1.25361
1.30142
1.35743
1.41248
0.768157
0.768263
0.768444
0.76871
0.769063
0.769507
0.77005
0.770697
0.771458
0.772342
0.773361
0.774529
0.775862
0.777377
0.779095
0.78104
0.783238
0.78572
0.788522
0.791683
0.79525
0.799277
0.803827
0.808972
0.814801
0.821418
0.828948
0.837548
0.847411
0.858782
0.871976
0.887403
0.905605
0.9273
0.953443
0.985269
1.02428
1.07206
1.13015
1.18863
0.574895
0.574975
0.575113
0.575315
0.575584
0.575922
0.576335
0.576828
0.577407
0.57808
0.578856
0.579746
0.580761
0.581915
0.583225
0.584707
0.586384
0.588277
0.590416
0.59283
0.595557
0.598637
0.602122
0.606069
0.610549
0.615645
0.621463
0.628131
0.635816
0.64473
0.655155
0.667471
0.6822
0.700075
0.72214
0.749902
0.785551
0.832359
0.895889
0.960555
0.382375
0.382429
0.382522
0.382658
0.382838
0.383066
0.383343
0.383675
0.384064
0.384517
0.38504
0.385638
0.386322
0.387099
0.38798
0.388979
0.390108
0.391384
0.392825
0.394453
0.396293
0.398373
0.400728
0.403399
0.406433
0.409892
0.41385
0.418399
0.42366
0.429793
0.43701
0.445607
0.456007
0.468827
0.485015
0.506073
0.534519
0.574995
0.638901
0.708136
0.190616
0.190643
0.190689
0.190757
0.190847
0.190961
0.1911
0.191265
0.19146
0.191686
0.191947
0.192247
0.192588
0.192977
0.193417
0.193916
0.194481
0.195119
0.19584
0.196654
0.197574
0.198615
0.199794
0.201132
0.202653
0.204389
0.206376
0.208664
0.211315
0.214412
0.218068
0.222442
0.227763
0.234376
0.242823
0.254005
0.269464
0.291113
0.319667
0.377122
-1.11057e-05
-1.12415e-05
-1.15497e-05
-1.20175e-05
-1.26457e-05
-1.34447e-05
-1.44271e-05
-1.5609e-05
-1.70096e-05
-1.86484e-05
-2.05537e-05
-2.2754e-05
-2.52889e-05
-2.82062e-05
-3.15802e-05
-3.54897e-05
-4.00013e-05
-4.52434e-05
-5.13543e-05
-5.84178e-05
-6.67038e-05
-7.63051e-05
-8.75644e-05
-0.000100864
-0.000116691
-0.000135731
-0.000158954
-0.000187734
-0.000224039
-0.000271064
-0.000333868
-0.000420953
-0.000548857
-0.000752546
-0.00111267
-0.00180501
-0.00283988
-0.00292249
-0.026936
0.0395945
0
0
0
0
0
0
0
0
0
0
0
0
0
0
0
0
0
0
0
0
0
0
0
0
0
0
0
0
0
0
0
0
0
0
0
0
0
0
0
0
0
0
0
0
0
0
0
0
0
0
0
0
0
0
0
0
0
0
0
0
0
0
0
0
0
0
0
0
0
0
0
0
0
0
0
0
0
0
0
0
0
0
0
0
0
0
0
0
0
0
0
0
0
0
0
0
0
0
0.00020159
2.52179e-05
1.18825e-05
0.000308349
0
0
0
0
0
0
0
0
0
0
0
0
0
0
0
0
0
0
0
0
0
0
0
0
0
0
0
0
0
0
0
0
0
0
0
0.00081107
-0.000740842
-0.00106939
-0.000937592
-0.000453193
0.00056371
0
0
0
0
0
0
0
0
0
0
0
0
0
0
0
0
0
0
0
0
0
0
0
0
0
0
0
0
0
0
0
0
0
0
-0.00157735
-0.00249747
-0.00248584
-0.00210178
-0.00134499
8.24222e-05
0
0
0
0
0
0
0
0
0
0
0
0
0
0
0
0
0
0
0
0
0
0
0
0
0
0
0
0
0
0
0
0
0
0
-0.00413931
-0.00415686
-0.00349351
-0.00284113
-0.00183102
6.64465e-05
0
0
0
0
0
0
0
0
0
0
0
0
0
0
0
0
0
0
0
0
0
0
0
0
0
0
0
0
0
0
0
0
0
0
-0.00866597
-0.00575604
-0.00377088
-0.00315905
-0.00213167
0.000405254
0
0
0
0
0
0
0
0
0
0
0
0
0
0
0
0
0
0
0
0
0
0
0
0
0
0
0
0
0
0
0
0
0
0
-0.0577173
-0.00518814
-0.000228546
-0.00132402
-0.000993307
0
0
0
0
0
0
0
0
0
0
0
0
0
0
0
0
0
0
0
0
0
0
0
0
0
0
0
0
0
0
0
0
0
0
0
0
0
0
0
0
0
0
0
0
0
0
0
0
0
0
0
0
0
0
0
0
0
0
0
0
0
0
0
0
0
0
0
0
0
0
0
0
0
0
0
0
0
0
0
0
0
0
0
0
0
0
0
0
0
0
0
0
0
0
0
0
0
0
0
0
0
0
0
0
0
0
0
0
0
0
0
0
0
0
0
0
0
0
0
0
0
0
0
0
0
0
0
0
0
0
0
0
0
0
0
0
0
0
0
0
0
0
0
0
0
0
0
0
0
0
0
0
0
0
0
0
0
0
0
0
0
0
0
0
0
0
0
0
0
0
0
0
0
0
0
0
0
0
0
0
0
0
0
0
0
0
0
0
0
0
0
0
0
0
0
0
0
0
0
0
0
0
0
0
0
0
0
0
0
0
0
0
0
0
0
0
0
0
0
0
0
0
0
0
0
0
0
0
0
0
0
0
0
0
0
0
0
0
0
0
0
0
0
0
0
0
0
0
0
0
0
0
0
0
0
0
0
0
0
0
0
0
0
0
0
0
0
0
0
0
0
0
0
0
0
0
0
0
0
0
0
0
0
0
0
0
0
0
0
0
0
0
0
0
0
0
0
0
0
0
0
0
0
0
0
0
0
0
0
0
0
0
0
0
0
0
0
0
0
0
0
0
0
0
0
0
0
0
0
0
0
0
0
0
0
0
0
0
SCALARS rhs double 1
LOOKUP_TABLE default
-5.11715
-5.05571
-5.05357
-5.05195
-5.05048
-5.04914
-5.04792
-5.04682
-5.04582
-5.04492
-5.04411
-5.04338
-5.04273
-5.04215
-5.04164
-5.04119
-5.0408
-5.04046
-5.04019
-5.03997
-5.0398
-5.0397
-5.03965
-5.03968
-5.03977
-5.03994
-5.04021
-5.04057
-5.04103
-5.04162
-5.04233
-5.04318
-5.0442
-5.04546
-5.0471
-5.04955
-5.05345
-5.05288
-5.10633
-6.1445
-0.0538685
0.00367086
0.00434691
0.00463166
0.00488957
0.00512251
0.00533218
0.00552012
0.00568771
0.00583613
0.00596635
0.00607915
0.00617505
0.0062543
0.00631687
0.00636237
0.00639003
0.00639859
0.0063863
0.00635076
0.00628884
0.00619659
0.00606913
0.00590056
0.00568387
0.005411
0.00507304
0.00466046
0.00416365
0.00357365
0.00288278
0.00208459
0.00117196
0.000130375
-0.00107872
-0.00253538
-0.00386527
0.00393801
0.00108311
-0.995153
-0.0490385
0.00553672
0.00615431
0.00640266
0.00662749
0.0068304
0.00701284
0.00717614
0.00732144
0.00744972
0.00756178
0.00765821
0.00773937
0.00780537
0.00785604
0.00789085
0.00790892
0.00790888
0.00788885
0.00784629
0.00777797
0.00767974
0.00754652
0.00737213
0.00714916
0.00686914
0.00652259
0.00609939
0.00558969
0.00498522
0.00428147
0.00348106
0.00259876
0.00166919
0.000758266
-1.8086e-06
0.00016791
0.0108201
0.00538867
-0.851039
-0.043915
0.00716376
0.00772582
0.00794361
0.00814066
0.00831837
0.00847799
0.00862064
0.00874731
0.00885879
0.00895574
0.0090386
0.0091076
0.00916273
0.00920371
0.00922992
0.00924034
0.00923354
0.0092075
0.0091596
0.0090864
0.00898361
0.00884587
0.00866657
0.00843786
0.00815053
0.00779415
0.00735754
0.00682977
0.00620217
0.00547185
0.00464814
0.00376348
0.00289149
0.00217503
0.00187898
0.0028474
0.0117525
-0.0119103
-0.81487
-0.0382032
0.00889249
0.00939386
0.00957914
0.00974662
0.00989747
0.0100327
0.0101534
0.0102601
0.0103537
0.0104345
0.0105028
0.0105588
0.0106024
0.0106331
0.0106501
0.0106525
0.0106386
0.0106063
0.0105528
0.0104746
0.010367
0.0102245
0.0100399
0.00980467
0.0095086
0.00913987
0.00868539
0.00813192
0.00746816
0.00668924
0.00580481
0.00485335
0.00392597
0.0032026
0.00300575
0.00401661
0.00677691
-0.0742784
-0.904717
-0.0319852
0.0107002
0.0111366
0.0112878
0.0114243
0.0115471
0.0116568
0.0117543
0.0118402
0.0119148
0.0119787
0.0120318
0.0120743
0.0121057
0.0121256
0.0121331
0.0121271
0.0121059
0.0120671
0.012008
0.0119247
0.0118124
0.011665
0.0114749
0.0112328
0.0109269
0.0105437
0.0100671
0.00947993
0.00876528
0.00791094
0.00691738
0.00581234
0.00467509
0.00366913
0.00308382
0.00330001
-0.00248142
-0.171212
-1.10815
-0.0253467
0.012564
0.0129319
0.0130481
0.0131526
0.0132463
0.0133296
0.0134032
0.0134675
0.0135227
0.013569
0.0136064
0.0136348
0.0136537
0.0136625
0.0136603
0.0136458
0.0136171
0.0135719
0.0135071
0.0134188
0.0133019
0.0131499
0.0129545
0.0127054
0.0123893
0.0119901
0.0114881
0.0108601
0.0100801
0.00912231
0.00796649
0.00660984
0.00508352
0.00347131
0.00192562
0.000518359
-0.0122035
-0.267793
-1.36669
-0.0183756
0.0144608
0.0147578
0.0148383
0.0149103
0.0149743
0.0150308
0.0150801
0.0151223
0.0151576
0.015186
0.0152074
0.0152215
0.0152277
0.0152253
0.0152132
0.01519
0.0151539
0.0151023
0.0150321
0.0149392
0.014818
0.0146618
0.0144616
0.014206
0.01388
0.0134647
0.0129355
0.0122618
0.011405
0.0103188
0.00895049
0.00724418
0.00514345
0.00259062
-0.00049958
-0.0041881
-0.0163371
-0.308155
-1.57339
-0.0111612
0.0163681
0.0165925
0.0166371
0.0166764
0.0167107
0.0167401
0.0167648
0.0167849
0.0168002
0.0168106
0.0168159
0.0168156
0.016809
0.0167953
0.0167734
0.0167418
0.0166984
0.0166406
0.0165653
0.016468
0.0163431