# vtk DataFile Version 4.0
Nusif Fluid VTK output
ASCII
DATASET STRUCTURED_POINTS
DIMENSIONS 40 30 1
ORIGIN 0 0 0 
SPACING 0.2 0.2 1
POINT_DATA 1200 

VECTORS velocity double
0.00886493 -0.00952911  0
0.0263904 -0.00927952  0
0.043224 -0.00879145  0
0.0588648 -0.00808574  0
0.0729045 -0.00718932  0
0.0849947 -0.00613501  0
0.0948539 -0.00495754  0
0.102272 -0.00369369  0
0.107113 -0.00238016  0
0.109316 -0.00105499  0
0.108896 0.000243179  0
0.105945 0.00147579  0
0.100629 0.00260657  0
0.0931865 0.00360191  0
0.0839127 0.00443638  0
0.0731451 0.00509429  0
0.0612393 0.0055734  0
0.0485429 0.00588462  0
0.0353725 0.00604773  0
0.0220013 0.00608493  0
0.00866433 0.00601262  0
-0.0044225 0.00583405  0
-0.0170334 0.00553666  0
-0.0289083 0.00509785  0
-0.0397417 0.00449487  0
-0.049191 0.00371347  0
-0.0569007 0.00275477  0
-0.0625339 0.00163638  0
-0.0658042 0.000391226  0
-0.0665041 -0.000934908  0
-0.0645294 -0.00228465  0
-0.0599031 -0.00358768  0
-0.0528088 -0.0047535  0
-0.043645 -0.00565788  0
-0.0331036 -0.00613178  0
-0.0222418 -0.00597909  0
-0.0124455 -0.0050669  0
-0.00512781 -0.00350083  0
-0.00111017 -0.00176714  0
1.58794e-05 -0.000609356  0
0.00911517 -0.0287912  0
0.0271295 -0.0280319  0
0.0444198 -0.0265477  0
0.0604697 -0.0244029  0
0.0748587 -0.0216821  0
0.0872307 -0.0184844  0
0.0973001 -0.014916  0
0.104855 -0.0110866  0
0.109757 -0.00710831  0
0.111944 -0.00309498  0
0.111432 0.000837474  0
0.108314 0.00457241  0
0.102763 0.00799703  0
0.095026 0.0110092  0
0.0854176 0.0135281  0
0.0742984 0.0155052  0
0.0620489 0.0169334  0
0.0490369 0.0178483  0
0.035589 0.018317  0
0.0219752 0.0184146  0
0.00841271 0.0181957  0
-0.00490845 0.0176719  0
-0.0177859 0.0167998  0
-0.0299686 0.0155046  0
-0.0411431 0.013708  0
-0.0509447 0.0113627  0
-0.0589882 0.00846958  0
-0.0649063 0.00508289  0
-0.0683873 0.00130483  0
-0.0692058 -0.00272255  0
-0.0672496 -0.00682188  0
-0.0625446 -0.0107768  0
-0.0552883 -0.0143109  0
-0.0459015 -0.017048  0
-0.0351004 -0.0184821  0
-0.0239578 -0.0180319  0
-0.0138581 -0.0153095  0
-0.00619758 -0.0106362  0
-0.00178406 -0.00546299  0
-0.000215102 -0.00200862  0
0.0096252 -0.0487651  0
0.0286353 -0.0474621  0
0.0468544 -0.0449188  0
0.0637327 -0.0412504  0
0.0788264 -0.0366072  0
0.091765 -0.03116  0
0.102256 -0.0250905  0
0.110085 -0.0185838  0
0.11511 -0.0118273  0
0.117268 -0.00501066  0
0.116571 0.00167172  0
0.113116 0.00802079  0
0.107085 0.0138398  0
0.0987479 0.0189478  0
0.0884552 0.0231983  0
0.0766158 0.0265024  0
0.0636625 0.0288482  0
0.0500094 0.0303073  0
0.0360072 0.0310158  0
0.021917 0.0311274  0
0.00791591 0.0307545  0
-0.00586466 0.0299229  0
-0.0192739 0.0285432  0
-0.0320816 0.0264592  0
-0.0439566 0.0235105  0
-0.054486 0.0195984  0
-0.0632205 0.0147186  0
-0.0697285 0.00896621  0
-0.0736444 0.00252356  0
-0.0747057 -0.00435689  0
-0.0727827 -0.0113621  0
-0.0679064 -0.0181134  0
-0.0603008 -0.0241321  0
-0.0504315 -0.0287794  0
-0.0390664 -0.0312136  0
-0.0273193 -0.0304871  0
-0.0165846 -0.0259858  0
-0.00823734 -0.0182647  0
-0.00305886 -0.00972357  0
-0.000650336 -0.00402251  0
0.0104179 -0.0700368  0
0.0309731 -0.0681279  0
0.0506264 -0.0644122  0
0.0687758 -0.0590709  0
0.0849434 -0.0523338  0
0.0987415 -0.0444556  0
0.109871 -0.0356997  0
0.118113 -0.0263296  0
0.123327 -0.016606  0
0.125444 -0.00679259  0
0.124472 0.00283629  0
0.120505 0.0119919  0
0.113737 0.0203803  0
0.104472 0.0277228  0
0.0931137 0.0337878  0
0.0801494 0.0384307  0
0.066101 0.0416346  0
0.05146 0.0435274  0
0.0366182 0.0443521  0
0.0218236 0.0443883  0
0.00718442 0.0438462  0
-0.00727143 0.04278  0
-0.0214848 0.0410211  0
-0.0352603 0.0382768  0
-0.0482351 0.0342548  0
-0.0599141 0.0287741  0
-0.0697422 0.0218166  0
-0.0771833 0.0135278  0
-0.0817848 0.00418932  0
-0.0832242 -0.00581211  0
-0.0813431 -0.016001  0
-0.0761777 -0.0258069  0
-0.0679922 -0.0345207  0
-0.0573236 -0.0412203  0
-0.0450271 -0.044726  0
-0.0322918 -0.0437491  0
-0.0205468 -0.0374956  0
-0.0111529 -0.0267885  0
-0.00485821 -0.0149652  0
-0.00126044 -0.00707933  0
0.0115287 -0.0932052  0
0.0342427 -0.0905914  0
0.0558847 -0.0855258  0
0.0757796 -0.0782831  0
0.0934074 -0.0691978  0
0.108364 -0.0586258  0
0.120348 -0.0469222  0
0.129148 -0.0344294  0
0.134625 -0.0214776  0
0.136702 -0.00839718  0
0.135375 0.00445933  0
0.130726 0.0167031  0
0.12296 0.0279215  0
0.112416 0.0377094  0
0.0995783 0.0457165  0
0.0850439 0.0517188  0
0.0694653 0.0556912  0
0.0534499 0.0578447  0
0.0374548 0.058589  0
0.0217116 0.0584065  0
0.00622581 0.0576704  0
-0.0091371 0.056492  0
-0.0244599 0.0545626  0
-0.0395961 0.0513641  0
-0.0541305 0.0463937  0
-0.0674437 0.0393439  0
-0.0788254 0.0301727  0
-0.0875887 0.0190918  0
-0.0931572 0.00651104  0
-0.0951216 -0.00701428  0
-0.0932796 -0.0208067  0
-0.087671 -0.0340606  0
-0.0786164 -0.0457928  0
-0.0667562 -0.0547632  0
-0.0530781 -0.0594443  0
-0.0388951 -0.0582358  0
-0.0257089 -0.0502269  0
-0.0148825 -0.0365645  0
-0.00712771 -0.0215257  0
-0.00202405 -0.0115073  0
0.0130039 -0.118952  0
0.0385727 -0.11548  0
0.0628164 -0.108799  0
0.0849635 -0.0993273  0
0.104449 -0.0875416  0
0.120861 -0.0739247  0
0.133913 -0.0589348  0
0.143417 -0.0429956  0
0.149248 -0.0264942  0
0.151321 -0.00980769  0
0.149599 0.00664354  0
0.144135 0.0223555  0
0.135131 0.0367644  0
0.122969 0.0492965  0
0.108225 0.0594354  0
0.0916442 0.0668384  0
0.0740509 0.0714665  0
0.056209 0.0736494  0
0.0386691 0.074042  0
0.0216507 0.0734376  0
0.00502505 0.0724734  0
-0.0115678 0.0713674  0
-0.0284017 0.0695666  0
-0.045382 0.0661989  0
-0.0620135 0.060447  0
-0.0775083 0.0518204  0
-0.0909519 0.0402431  0
-0.101461 0.0260156  0
-0.108298 0.00971475  0
-0.110938 -0.00789239  0
-0.109113 -0.025875  0
-0.102861 -0.0431319  0
-0.0925761 -0.0583409  0
-0.0790411 -0.0698906  0
-0.0634331 -0.0758837  0
-0.0472517 -0.0744418  0
-0.0321211 -0.064619  0
-0.0194321 -0.0479692  0
-0.00985721 -0.0297322  0
-0.00293551 -0.0176075  0
0.0148867 -0.148047  0
0.0440801 -0.143487  0
0.0715822 -0.134809  0
0.0965 -0.122653  0
0.118229 -0.1077  0
0.136374 -0.0905917  0
0.150689 -0.0719053  0
0.161043 -0.0521519  0
0.167357 -0.031752  0
0.169542 -0.0110785  0
0.167491 0.00941662  0
0.161185 0.0290831  0
0.150801 0.0471554  0
0.136755 0.0628433  0
0.119723 0.0753936  0
0.100624 0.0842888  0
0.0804911 0.0894712  0
0.060272 0.0914337  0
0.0406349 0.0911628  0
0.0218035 0.0898945  0
0.00350467 0.088669  0
-0.0148817 0.087879  0
-0.0338323 0.0865673  0
-0.0532801 0.0833543  0
-0.0726241 0.076995  0
-0.090883 0.0667539  0
-0.106907 0.0525047  0
-0.119582 0.0346663  0
-0.127981 0.0140288  0
-0.131433 -0.00838679  0
-0.129576 -0.0313363  0
-0.122435 -0.0533366  0
-0.110491 -0.0726388  0
-0.0947073 -0.0871856  0
-0.0765133 -0.0946653  0
-0.0576728 -0.0929571  0
-0.0399953 -0.0811871  0
-0.0249312 -0.0614299  0
-0.0131133 -0.0399399  0
-0.00401479 -0.0256955  0
0.0171774 -0.181306  0
0.0507559 -0.175328  0
0.0821434 -0.164123  0
0.110303 -0.14868  0
0.134606 -0.129969  0
0.154704 -0.108828  0
0.170427 -0.0859713  0
0.181757 -0.0620324  0
0.188742 -0.0374335  0
0.191315 -0.0124189  0
0.18922 0.0126383  0
0.182269 0.0368555  0
0.170588 0.0591842  0
0.15459 0.0785934  0
0.135019 0.093981  0
0.112991 0.104563  0
0.0897803 0.110276  0
0.0665186 0.111844  0
0.0439835 0.110658  0
0.022425 0.108522  0
0.00146147 0.107037  0
-0.0197221 0.106814  0
-0.0417094 0.106303  0
-0.0644048 0.103495  0
-0.0871112 0.0966382  0
-0.108688 0.0846804  0
-0.127755 0.0674026  0
-0.142957 0.0453803  0
-0.153175 0.0196663  0
-0.15757 -0.00844306  0
-0.155642 -0.0373317  0
-0.147367 -0.0650238  0
-0.133304 -0.0892259  0
-0.114616 -0.107338  0
-0.0930537 -0.116538  0
-0.0707522 -0.114496  0
-0.0497869 -0.10056  0
-0.0316981 -0.0774791  0
-0.0170804 -0.0525961  0
-0.00532145 -0.0361666  0
0.0197592 -0.219428  0
0.0582675 -0.211608  0
0.0939863 -0.197208  0
0.125704 -0.17773  0
0.152787 -0.154563  0
0.174961 -0.128765  0
0.192129 -0.101183  0
0.204456 -0.0727336  0
0.212318 -0.0438364  0
0.215787 -0.0143155  0
0.214272 0.0158881  0
0.207205 0.0453657  0
0.194676 0.0726269  0
0.177002 0.096563  0
0.154855 0.11547  0
0.129594 0.128103  0
0.102817 0.134463  0
0.075805 0.135669  0
0.0493499 0.133562  0
0.02371 0.130556  0
-0.00149934 0.128915  0
-0.027012 0.129372  0
-0.053235 0.129695  0
-0.0799879 0.127291  0
-0.106606 0.119907  0
-0.131935 0.106058  0
-0.154405 0.0853025  0
-0.172423 0.058442  0
-0.184726 0.0268664  0
-0.190319 -0.00791509  0
-0.188466 -0.0439  0
-0.178966 -0.0784903  0
-0.162366 -0.108683  0
-0.139996 -0.1312  0
-0.114046 -0.14245  0
-0.0872617 -0.139932  0
-0.0621163 -0.123498  0
-0.0402135 -0.0967964  0
-0.0220612 -0.0683127  0
-0.00695705 -0.049577  0
0.022347 -0.262708  0
0.0658431 -0.252633  0
0.105997 -0.234309  0
0.141334 -0.209936  0
0.171213 -0.18157  0
0.195487 -0.150457  0
0.213921 -0.117344  0
0.226857 -0.0840873  0
0.235539 -0.0512772  0
0.240607 -0.0176628  0
0.240605 0.0185028  0
0.234052 0.0541182  0
0.221439 0.0867658  0
0.202838 0.116446  0
0.1783 0.140019  0
0.149592 0.15527  0
0.118934 0.162474  0
0.0877151 0.163633  0
0.056475 0.161037  0
0.0253245 0.157615  0
-0.00595752 0.156091  0
-0.0374521 0.156947  0
-0.0689163 0.157552  0
-0.100134 0.15515  0
-0.130826 0.147103  0
-0.160131 0.131242  0
-0.186317 0.106523  0
-0.207516 0.0741861  0
-0.222466 0.0361229  0
-0.23004 -0.00625653  0
-0.229029 -0.0506755  0
-0.218674 -0.093823  0
-0.199206 -0.131672  0
-0.172042 -0.16  0
-0.140129 -0.17377  0
-0.107469 -0.170313  0
-0.0772141 -0.150775  0
-0.0507826 -0.120113  0
-0.0283226 -0.087867  0
-0.00902224 -0.0666853  0
0.0245974 -0.310815  0
0.072637 -0.298348  0
0.117068 -0.275427  0
0.1558 -0.245133  0
0.188261 -0.210957  0
0.21471 -0.174037  0
0.233747 -0.133478  0
0.245578 -0.094965  0
0.253964 -0.059711  0
0.261472 -0.0240497  0
0.263926 0.0201938  0
0.25715 0.0635107  0
0.244699 0.100191  0
0.226553 0.13752  0
0.200045 0.167742  0
0.167699 0.186353  0
0.133238 0.194261  0
0.0982112 0.195842  0
0.0624369 0.193592  0
0.0255651 0.190831  0
-0.0124137 0.189885  0
-0.0502216 0.190205  0
-0.0865344 0.189821  0
-0.121395 0.186711  0
-0.155469 0.178059  0
-0.188756 0.160631  0
-0.219282 0.131601  0
-0.244546 0.0933245  0
-0.263508 0.0486513  0
-0.274956 -0.00200844  0
-0.276676 -0.05646  0
-0.266611 -0.110705  0
-0.244097 -0.159018  0
-0.21053 -0.195633  0
-0.170237 -0.212592  0
-0.129923 -0.206716  0
-0.0939787 -0.182823  0
-0.0629078 -0.147819  0
-0.0357749 -0.112006  0
-0.0115201 -0.0883539  0
0.0264604 -0.363025  0
0.0787737 -0.348764  0
0.12762 -0.32053  0
0.169071 -0.282454  0
0.203393 -0.242659  0
0.232595 -0.200225  0
0.250174 -0.146144  0
0.255661 -0.101855  0
0.260341 -0.0681244  0
0.271864 -0.0369055  0
0.277562 0.0226582  0
0.264664 0.0784828  0
0.249844 0.11025  0
0.235055 0.158156  0
0.20807 0.198357  0
0.172098 0.221813  0
0.134379 0.228737  0
0.097347 0.231179  0
0.0595882 0.229542  0
0.0204711 0.228624  0
-0.0204423 0.228738  0
-0.0607286 0.2272  0
-0.0982897 0.224455  0
-0.133762 0.220167  0
-0.169193 0.211866  0
-0.206747 0.195425  0
-0.243638 0.161986  0
-0.274879 0.117207  0
-0.299875 0.0664898  0
-0.317687 0.00717428  0
-0.324485 -0.0593628  0
-0.316351 -0.128241  0
-0.291572 -0.191014  0
-0.251309 -0.239708  0
-0.200796 -0.261568  0
-0.151605 -0.249491  0
-0.110374 -0.219469  0
-0.0753716 -0.179493  0
-0.0439381 -0.141146  0
-0.0143287 -0.115326  0
0.0283507 -0.418978  0
0.0857824 -0.404816  0
0.139947 -0.369725  0
0.181515 -0.318513  0
0.215547 -0.277186  0
0.248455 -0.230037  0
0.258732 -0.146418  0
0.24761 -0.0981752  0
0.242886 -0.0739912  0
0.258187 -0.0600948  0
0.266916 0.0291884  0
0.240532 0.109003  0
0.220718 0.112131  0
0.21391 0.175638  0
0.190927 0.228605  0
0.151142 0.265083  0
0.108591 0.263496  0
0.0714207 0.268382  0
0.0359549 0.263322  0
0.00463656 0.263037  0
-0.0267343 0.264367  0
-0.0580307 0.260912  0
-0.088311 0.256344  0
-0.118679 0.25188  0
-0.15224 0.24691  0
-0.197126 0.240587  0
-0.246854 0.201212  0
-0.286336 0.146475  0
-0.316457 0.0901073  0
-0.339194 0.0218746  0
-0.349673 -0.0590183  0
-0.343718 -0.144907  0
-0.321334 -0.223745  0
-0.283378 -0.287429  0
-0.227806 -0.322169  0
-0.172037 -0.29609  0
-0.127514 -0.260866  0
-0.0884908 -0.214366  0
-0.0528889 -0.175552  0
-0.0174425 -0.148219  0
0.0299313 -0.478392  0
0.0927326 -0.467883  0
0.151054 -0.421375  0
0.184719 -0.344326  0
0.213782 -0.316697  0
0.240783 -0.252106  0
0.235209 -0.130167  0
0.212382 -0.0815907  0
0.197445 -0.0720291  0
0.191121 -0.0721485  0
0.196256 0.0262637  0
0.209567 0.123885  0
0.212423 0.113091  0
0.190909 0.201886  0
0.168829 0.245744  0
0.116874 0.337448  0
0.0557705 0.292549  0
0.0181845 0.31185  0
-0.0129108 0.284178  0
-0.0194349 0.277784  0
-0.0215996 0.280916  0
-0.0267265 0.278548  0
-0.0364864 0.276512  0
-0.0536326 0.276992  0
-0.0798191 0.279315  0
-0.142366 0.313387  0
-0.223433 0.257537  0
-0.272104 0.17719  0
-0.296171 0.112466  0
-0.309828 0.0347956  0
-0.312308 -0.0600944  0
-0.305048 -0.158159  0
-0.293498 -0.245541  0
-0.28315 -0.315051  0
-0.246441 -0.388505  0
-0.196099 -0.338104  0
-0.152263 -0.309449  0
-0.105784 -0.253523  0
-0.0637852 -0.216234  0
-0.021113 -0.187893  0
0.026936 -0.536384  0
0.0850749 -0.533071  0
0.130038 -0.461143  0
0.147124 -0.356422  0
0.15045 -0.338103  0
0.128784 -0.29818  0
0.141325 -0.0592204  0
0.187258 -0.0352443  0
0.19703 -0.0340972  0
0.147704 -0.0348294  0
0.102327 0.00931934  0
0.160926 0.0590997  0
0.161237 0.0579601  0
0.111093 0.234575  0
0.117243 0.248579  0
0.100366 0.402326  0
0.0689225 0.319102  0
-0.00173533 0.392425  0
-0.0483224 0.279608  0
-0.0257574 0.264075  0
0.000211732 0.268584  0
0.0198155 0.274169  0
0.0271658 0.281068  0
0.00731123 0.307206  0
-0.0237527 0.30468  0
-0.0343084 0.360011  0
-0.0960893 0.325718  0
-0.187266 0.0959871  0
-0.219769 0.060874  0
-0.217959 0.0195851  0
-0.21096 -0.0309943  0
-0.21018 -0.0817626  0
-0.215654 -0.125863  0
-0.226302 -0.370412  0
-0.232778 -0.42161  0
-0.219838 -0.369399  0
-0.17957 -0.363936  0
-0.126052 -0.301269  0
-0.074701 -0.264073  0
-0.0247693 -0.234892  0
0.0114 -0.57528  0
0.0228 -0.564831  0
0.0257216 -0.519867  0
0.0787239 -0.179874  0
0.139628 -0.169051  0
0.0752252 -0.169051  0
0 0  0
0 0  0
0 0  0
0 0  0
0 0  0
0 0  0
0 0  0
0.0586213 0.12429  0
0.0319309 0.12429  0
0.0578211 0.209601  0
0.0542664 0.166835  0
-0.0112134 0.35903  0
0.0380633 0.269546  0
0.0290885 0.258869  0
0.0314932 0.24318  0
0.034211 0.275576  0
0.0217161 0.28369  0
0.0178828 0.327157  0
-0.0306006 0.321196  0
-0.0566962 0.180006  0
-0.0171542 0.180006  0
0 0  0
0 0  0
0 0  0
0 0  0
0 0  0
0 0  0
-0.116389 -0.210805  0
-0.252413 -0.210805  0
-0.21977 -0.387081  0
-0.167492 -0.391823  0
-0.137642 -0.357867  0
-0.0817249 -0.31586  0
-0.0278292 -0.288049  0
0.000475259 -0.29334  0
0.0118753 -0.282415  0
0.0114 -0.282415  0
0 0  0
0 0  0
0 0  0
0 0  0
0 0  0
0 0  0
0 0  0
0 0  0
0 0  0
0 0  0
0 0  0
0 0  0
0 0  0
0 0  0
0.0190316 0.134773  0
0.0410591 0.268415  0
0.0440549 0.267284  0
0.0440549 0.231242  0
0.0331597 0.25774  0
0.000256668 0.143761  0
-0.00193415 0.163578  0
0.00894142 0.163578  0
0 0  0
0 0  0
0 0  0
0 0  0
0 0  0
0 0  0
0 0  0
0 0  0
0 0  0
0 0  0
-0.0837458 -0.195912  0
-0.169545 -0.195912  0
-0.16259 -0.193858  0
-0.117644 -0.170963  0
-0.0408537 -0.157939  0
0 0  0
0 0  0
0 0  0
0 0  0
0 0  0
0 0  0
0 0  0
0 0  0
0 0  0
0 0  0
0 0  0
0 0  0
0 0  0
0 0  0
0 0  0
0 0  0
0 0  0
0 0  0
0.0220274 0.133642  0
0.0620758 0.133642  0
0.0620758 0.115621  0
0.0220274 0.115621  0
0 0  0
0 0  0
0 0  0
0 0  0
0 0  0
0 0  0
0 0  0
0 0  0
0 0  0
0 0  0
0 0  0
0 0  0
0 0  0
0 0  0
0 0  0
0 0  0
0 0  0
0 0  0
0 0  0
0 0  0
0 0  0
0 0  0
0 0  0
0 0  0
0 0  0
0 0  0
0 0  0
0 0  0
0 0  0
0 0  0
0 0  0
0 0  0
0 0  0
0 0  0
0 0  0
0 0  0
0 0  0
0 0  0
0 0  0
0 0  0
0 0  0
0 0  0
0 0  0
0 0  0
0 0  0
0 0  0
0 0  0
0 0  0
0 0  0
0 0  0
0 0  0
0 0  0
0 0  0
0 0  0
0 0  0
0 0  0
0 0  0
0 0  0
0 0  0
0 0  0
0 0  0
0 0  0
0 0  0
0 0  0
0 0  0
0 0  0
0 0  0
0 0  0
0 0  0
0 0  0
0 0  0
0 0  0
0 0  0
0 0  0
0 0  0
0 0  0
0 0  0
0 0  0
0 0  0
0 0  0
0 0  0
0 0  0
0 0  0
0 0  0
0 0  0
0 0  0
0 0  0
0 0  0
0 0  0
0 0  0
0 0  0
0 0  0
0 0  0
0 0  0
0 0  0
0 0  0
0 0  0
0 0  0
0 0  0
0 0  0
0 0  0
0 0  0
0 0  0
0 0  0
0 0  0
0 0  0
0 0  0
0 0  0
0 0  0
0 0  0
0 0  0
0 0  0
0 0  0
0 0  0
0 0  0
0 0  0
0 0  0
0 0  0
0 0  0
0 0  0
0 0  0
0 0  0
0 0  0
0 0  0
0 0  0
0 0  0
0 0  0
0 0  0
0 0  0
0 0  0
0 0  0
0 0  0
0 0  0
0 0  0
0 0  0
0 0  0
0 0  0
0 0  0
0 0  0
0 0  0
0 0  0
0 0  0
0 0  0
0 0  0
0 0  0
0 0  0
0 0  0
0 0  0
0 0  0
0 0  0
0 0  0
0 0  0
0 0  0
0 0  0
0 0  0
0 0  0
0 0  0
0 0  0
0 0  0
0 0  0
0 0  0
0 0  0
0 0  0
0 0  0
0 0  0
0 0  0
0 0  0
0 0  0
0 0  0
0 0  0
0 0  0
0 0  0
0 0  0
0 0  0
0 0  0
0 0  0
0 0  0
0 0  0
0 0  0
0 0  0
0 0  0
0 0  0
0 0  0
0 0  0
0 0  0
0 0  0
0 0  0
0 0  0
0 0  0
0 0  0
0 0  0
0 0  0
0 0  0
0 0  0
0 0  0
0 0  0
0 0  0
0 0  0
0 0  0
0 0  0
0 0  0
0 0  0
0 0  0
0 0  0
0 0  0
0 0  0
0 0  0
0 0  0
0 0  0
0 0  0
0 0  0
0 0  0
0 0  0
0 0  0
0 0  0
0 0  0
0 0  0
0 0  0
0 0  0
0 0  0
0 0  0
0 0  0
0 0  0
0 0  0
0 0  0
0 0  0
0 0  0
0 0  0
0 0  0
0 0  0
0 0  0
0 0  0
0 0  0
0 0  0
0 0  0
0 0  0
0 0  0
0 0  0
0 0  0
0 0  0
0 0  0
0 0  0
0 0  0
0 0  0
0 0  0
0 0  0
0 0  0
0 0  0
0 0  0
0 0  0
0 0  0
0 0  0
0 0  0
0 0  0
0 0  0
0 0  0
0 0  0
0 0  0
0 0  0
0 0  0
0 0  0
0 0  0
0 0  0
0 0  0
0 0  0
0 0  0
0 0  0
0 0  0
0 0  0
0 0  0
0 0  0
0 0  0
0 0  0
0 0  0
0 0  0
0 0  0
0 0  0
0 0  0
0 0  0
0 0  0
0 0  0
0 0  0
0 0  0
0 0  0
0 0  0
0 0  0
0 0  0
0 0  0
0 0  0
0 0  0
0 0  0
0 0  0
0 0  0
0 0  0
0 0  0
0 0  0
0 0  0
0 0  0
0 0  0
0 0  0
0 0  0
0 0  0
0 0  0
0 0  0
0 0  0
0 0  0
0 0  0
0 0  0
0 0  0
0 0  0
0 0  0
0 0  0
0 0  0
0 0  0
0 0  0
0 0  0
0 0  0
0 0  0
0 0  0
0 0  0
0 0  0
0 0  0
0 0  0
0 0  0
0 0  0
0 0  0
0 0  0
0 0  0
0 0  0
0 0  0
0 0  0
0 0  0
0 0  0
0 0  0
0 0  0
0 0  0
0 0  0
0 0  0
0 0  0
0 0  0
0 0  0
0 0  0
0 0  0
0 0  0
0 0  0
0 0  0
0 0  0
0 0  0
0 0  0
0 0  0
0 0  0
0 0  0
0 0  0
0 0  0
0 0  0
0 0  0
0 0  0
0 0  0
0 0  0
0 0  0
0 0  0
0 0  0
0 0  0
0 0  0
0 0  0
0 0  0
0 0  0
0 0  0
0 0  0
0 0  0
0 0  0
0 0  0
0 0  0
0 0  0
0 0  0
0 0  0
0 0  0
0 0  0
0 0  0
0 0  0
0 0  0
0 0  0
0 0  0
0 0  0
0 0  0
0 0  0
0 0  0
0 0  0
0 0  0
0 0  0
0 0  0
0 0  0
0 0  0
0 0  0
0 0  0
0 0  0
0 0  0
0 0  0
0 0  0
0 0  0
0 0  0
0 0  0
0 0  0
0 0  0
0 0  0
0 0  0
0 0  0
0 0  0
0 0  0
0 0  0
0 0  0
0 0  0
0 0  0
0 0  0
0 0  0
0 0  0
0 0  0
0 0  0
0 0  0
0 0  0
0 0  0
0 0  0
0 0  0
0 0  0
0 0  0
0 0  0
0 0  0
0 0  0
0 0  0
0 0  0
0 0  0
0 0  0
0 0  0
0 0  0
0 0  0
0 0  0
0 0  0
0 0  0
0 0  0
0 0  0
0 0  0
0 0  0
0 0  0
0 0  0
0 0  0
0 0  0
0 0  0
0 0  0
0 0  0
0 0  0
0 0  0
0 0  0
0 0  0
0 0  0
0 0  0
0 0  0
0 0  0
0 0  0
0 0  0
0 0  0
0 0  0
0 0  0
0 0  0
0 0  0
0 0  0
0 0  0
0 0  0
0 0  0
0 0  0
0 0  0
0 0  0
0 0  0
0 0  0
0 0  0
0 0  0
0 0  0
0 0  0
0 0  0
0 0  0
0 0  0
0 0  0
0 0  0
0 0  0
0 0  0
0 0  0
0 0  0
0 0  0
0 0  0
0 0  0
0 0  0
0 0  0
0 0  0
0 0  0
0 0  0
0 0  0
0 0  0
0 0  0
0 0  0

SCALARS pressure double 1
LOOKUP_TABLE default
1.9597
1.96189
1.96317
1.96364
1.96348
1.96287
1.96204
1.96118
1.96046
1.96
1.95986
1.96007
1.96067
1.96159
1.96263
1.96364
1.96514
1.96636
1.9672
1.96788
1.9683
1.96831
1.96794
1.96735
1.96656
1.96561
1.96459
1.9636
1.96273
1.962
1.96142
1.96099
1.96064
1.96031
1.95994
1.9595
1.95901
1.95855
1.95822
1.95805
1.77136
1.7734
1.77454
1.77487
1.77457
1.77384
1.7729
1.77196
1.77118
1.77068
1.77053
1.7709
1.7716
1.77247
1.77352
1.77541
1.77658
1.77776
1.77888
1.77957
1.77994
1.78003
1.77971
1.77905
1.77817
1.77717
1.77613
1.7751
1.77417
1.77341
1.77281
1.77237
1.77201
1.77167
1.77129
1.77084
1.77036
1.76993
1.76961
1.76945
1.59158
1.59344
1.59435
1.59443
1.59387
1.5929
1.59175
1.59064
1.58973
1.58916
1.58919
1.58955
1.59021
1.59128
1.59338
1.59457
1.59622
1.59764
1.59874
1.5996
1.60007
1.60009
1.59973
1.59907
1.59813
1.59702
1.59586
1.59475
1.59376
1.59295
1.59232
1.59184
1.59147
1.59112
1.59074
1.59031
1.58985
1.58944
1.58916
1.58903
1.42024
1.42187
1.42246
1.42217
1.42122
1.41987
1.41839
1.417
1.41592
1.41546
1.41532
1.4157
1.41669
1.4187
1.4201
1.42223
1.42391
1.42557
1.42695
1.42787
1.42841
1.42849
1.42808
1.4273
1.42624
1.42499
1.42367
1.42241
1.42131
1.42043
1.41976
1.41926
1.41888
1.41854
1.41818
1.41778
1.41737
1.41703
1.4168
1.4167
1.2572
1.25853
1.2587
1.2579
1.2564
1.25451
1.25256
1.2508
1.24966
1.24887
1.2488
1.24945
1.25116
1.25293
1.25523
1.2574
1.25971
1.26163
1.26325
1.26443
1.26505
1.26508
1.26461
1.26369
1.26241
1.26091
1.25936
1.25788
1.25661
1.25563
1.2549
1.2544
1.25405
1.25375
1.25345
1.25313
1.25282
1.25259
1.25247
1.25243
1.1023
1.10327
1.10287
1.10137
1.09911
1.0965
1.09391
1.09182
1.09018
1.08937
1.08938
1.09056
1.09252
1.09477
1.09763
1.10053
1.10326
1.10576
1.10771
1.10911
1.10988
1.10988
1.10924
1.10806
1.10647
1.1046
1.10267
1.10086
1.09935
1.09822
1.09745
1.09697
1.0967
1.09652
1.09636
1.0962
1.09609
1.09606
1.09612
1.09618
0.955376
0.955865
0.954714
0.952274
0.949011
0.945431
0.942103
0.939291
0.937336
0.9364
0.936719
0.938359
0.940513
0.943818
0.94732
0.951129
0.954654
0.957741
0.96025
0.961977
0.962878
0.962805
0.9619
0.960306
0.958189
0.955756
0.953252
0.950948
0.949071
0.947751
0.946947
0.946552
0.946452
0.946518
0.946652
0.946825
0.947062
0.947379
0.947715
0.947931
0.816186
0.816066
0.813924
0.810243
0.80563
0.800841
0.796446
0.792834
0.790411
0.78937
0.789995
0.791766
0.794898
0.799057
0.803898
0.808797
0.813488
0.817532
0.820748
0.822969
0.824052
0.823794
0.822465
0.820227
0.817297
0.813949
0.810544
0.807485
0.805088
0.803512
0.802689
0.802453
0.802654
0.803139
0.803785
0.804541
0.8054
0.80632
0.807144
0.807642
0.684481
0.683589
0.680181
0.67481
0.668478
0.661974
0.656043
0.651376
0.648361
0.647327
0.648052
0.650354
0.654627
0.660217
0.666778
0.673398
0.679551
0.684899
0.689115
0.691982
0.693299
0.692741
0.690734
0.687493
0.683277
0.678492
0.673684
0.669473
0.666305
0.664348
0.663517
0.66355
0.664304
0.665601
0.667279
0.669136
0.671068
0.672943
0.674507
0.675402
0.560013
0.558237
0.552972
0.545438
0.536551
0.527674
0.520026
0.514227
0.510632
0.509386
0.510123
0.513312
0.518765
0.526365
0.535248
0.54434
0.552593
0.55968
0.565288
0.569066
0.570638
0.569625
0.56654
0.56172
0.555478
0.548449
0.541437
0.535527
0.531294
0.528855
0.528016
0.528513
0.530213
0.532991
0.53641
0.540065
0.543752
0.54715
0.54983
0.551261
0.442779
0.439436
0.431982
0.421417
0.409297
0.397261
0.387577
0.380588
0.376381
0.374786
0.375705
0.379471
0.386096
0.396213
0.408979
0.421403
0.432334
0.441622
0.449068
0.45407
0.455863
0.454045
0.449496
0.442327
0.43332
0.423052
0.412501
0.404053
0.3984
0.395214
0.394282
0.395339
0.398458
0.403385
0.410037
0.416847
0.423331
0.42896
0.433193
0.435424
0.332487
0.327577
0.316956
0.302642
0.285988
0.268923
0.257663
0.2502
0.245641
0.243619
0.244091
0.248059
0.255795
0.268827
0.287654
0.304857
0.318663
0.330584
0.340275
0.346604
0.348529
0.346012
0.33959
0.329932
0.317109
0.301956
0.285083
0.273171
0.265932
0.261833
0.260269
0.26157
0.265982
0.274247
0.286692
0.298749
0.309746
0.318663
0.324962
0.328134
0.230033
0.222625
0.207332
0.189416
0.166915
0.138414
0.129558
0.124037
0.119866
0.116876
0.115353
0.119497
0.12748
0.142095
0.173575
0.196166
0.21181
0.226148
0.239091
0.247472
0.24964
0.246041
0.237893
0.225156
0.20761
0.186294
0.155897
0.140842
0.133299
0.128784
0.125864
0.126237
0.130667
0.140948
0.164978
0.186049
0.20371
0.216897
0.225627
0.229738
0.136692
0.125301
0.101147
0.0848993
0.0576904
-0.00404538
0.00657159
0.00570659
0.00184467
0.001209
-0.00392969
-0.00287363
0.00131717
0.00885277
0.0768157
0.0976177
0.11001
0.127703
0.147459
0.159174
0.161358
0.155877
0.14626
0.130605
0.105744
0.0818308
0.0163859
0.0073074
0.00469329
0.00230714
-0.000839371
-0.00263523
-0.00311015
-0.00249689
0.0462657
0.0819375
0.107527
0.125417
0.135888
0.140354
0.0558037
0.0399103
-0.00758615
-0.000857722
-0.00574662
0
0
0
0
0
0
0
0
0
0.0370042
0.00797341
0.00678305
0.028514
0.0692156
0.0875373
0.0873999
0.0767478
0.0669049
0.050366
0.00435296
0.0216564
0
0
0
0
0
0
0
0
-0.0527407
-0.00573311
0.0244602
0.046903
0.0564165
0.0595695
-0.00589179
-0.00641327
0
0
0
0
0
0
0
0
0
0
0
0
0
0
0
0
0.0221651
0.0416224
0.0304595
0.00424397
0.00182899
0.00717857
0
0
0
0
0
0
0
0
0
0
0
0
-0.0461431
-0.0148663
-0.0129118
-0.0138457
0
0
0
0
0
0
0
0
0
0
0
0
0
0
0
0
0
0
0
0.0331277
-0.00341947
0
0
0
0
0
0
0
0
0
0
0
0
0
0
0
0
0
0
0
0
0
0
0
0
0
0
0
0
0
0
0
0
0
0
0
0
0
0
0
0
0
0
0
0
0
0
0
0
0
0
0
0
0
0
0
0
0
0
0
0
0
0
0
0
0
0
0
0
0
0
0
0
0
0
0
0
0
0
0
0
0
0
0
0
0
0
0
0
0
0
0
0
0
0
0
0
0
0
0
0
0
0
0
0
0
0
0
0
0
0
0
0
0
0
0
0
0
0
0
0
0
0
0
0
0
0
0
0
0
0
0
0
0
0
0
0
0
0
0
0
0
0
0
0
0
0
0
0
0
0
0
0
0
0
0
0
0
0
0
0
0
0
0
0
0
0
0
0
0
0
0
0
0
0
0
0
0
0
0
0
0
0
0
0
0
0
0
0
0
0
0
0
0
0
0
0
0
0
0
0
0
0
0
0
0
0
0
0
0
0
0
0
0
0
0
0
0
0
0
0
0
0
0
0
0
0
0
0
0
0
0
0
0
0
0
0
0
0
0
0
0
0
0
0
0
0
0
0
0
0
0
0
0
0
0
0
0
0
0
0
0
0
0
0
0
0
0
0
0
0
0
0
0
0
0
0
0
0
0
0
0
0
0
0
0
0
0
0
0
0
0
0
0
0
0
0
0
0
0
0
0
0
0
0
0
0
0
0
0
0
0
0
0
0
0
0
0
0
0
0
0
0
0
0
0
0
0
0
0
0
0
0
0
0
0
0
0
0
0
0
0
0
0
0
0
0
0
0
0
0
0
0
0
0
0
0
0
0
0
0
0
0
0
0
0
0
0
0
0
0
0
0
0
0
0
0
0
0
0
0
0
0
0
0
0
0
0
0
0
0
0
0
0
0
0
0
0
0
0
0
0
0
0
0
0
0
0
0
0
0
0
0
0
0
0
0
0
0
0
0
0
0
0
0
0
0
0
0
0
0
0
0
0
0
0
0
0
0
0
0
0
0
0
0
0
0
0
0
0
0
0
0
0
0
0
0
0
0
0
0
0
0
0
0
0
0
0
0
0
0
0
0
0
0
0
0
0
0
0
0
0
0
0
0
0
0
0
0
0
0
0
0
0
0
0
0
0
0
0
0
0
0
0
0
0
0
0
0
0
0
0
0
0
0
0
0
0
0
0
0
0
0
0
0
0
0
0
0
0
0
0
0
0
0
0
0
0
0
0
SCALARS rhs double 1
LOOKUP_TABLE default
-4.75788
-4.79396
-4.79469
-4.7931
-4.791
-4.78813
-4.78555
-4.78331
-4.78163
-4.78073
-4.78058
-4.77576
-4.7754
-4.78255
-4.78624
-4.7523
-4.78055
-4.78342
-4.77072
-4.77399
-4.77917
-4.7763
-4.77162
-4.77265
-4.77399
-4.77325
-4.77142
-4.77089
-4.77166
-4.773
-4.77454
-4.77656
-4.77907
-4.78122
-4.78259
-4.78221
-4.7803
-4.77778
-4.77622
-4.77581
0.20735
0.177109
0.177735
0.179455
0.181782
0.184195
0.186358
0.188955
0.189876
0.191109
0.199193
0.191362
0.182109
0.189122
0.231388
0.152973
0.192919
0.197041
0.179531
0.187016
0.191395
0.185007
0.184287
0.188783
0.191999
0.192199
0.191191
0.192074
0.193409
0.193229
0.192163
0.19026
0.188542
0.186957
0.186516
0.187396
0.189591
0.191832
0.193194
0.19347
0.201734
0.17331
0.174744
0.176487
0.178897
0.181122
0.184369
0.185557
0.18792
0.197911
0.183715
0.181969
0.19497
0.228202
0.137358
0.212123
0.183035
0.180905
0.190552
0.183514
0.181837
0.18662
0.188343
0.186014
0.187044
0.188906
0.190633
0.190535
0.190085
0.18966
0.188976
0.187676
0.186049
0.184755
0.184631
0.185906
0.188492
0.190983
0.192211
0.192382
0.195586
0.168917
0.170258
0.172349
0.174859
0.178036
0.179996
0.182938
0.19378
0.175189
0.185559
0.194162
0.214079
0.144188
0.217354
0.165254
0.190919
0.184949
0.179454
0.186605
0.184647
0.181347
0.183471
0.185595
0.185138
0.185642
0.186298
0.187511
0.187891
0.186502
0.185162
0.183919
0.182593
0.181883
0.182397
0.184519
0.187545
0.190234
0.191384
0.191419
0.188182
0.162657
0.164125
0.166567
0.169757
0.172566
0.175686
0.186146
0.169105
0.185173
0.18599
0.20048
0.164406
0.194001
0.169265
0.192256
0.174273
0.18432
0.183361
0.179037
0.180322
0.182166
0.181629
0.180745
0.18212
0.182428
0.182591
0.182506
0.182583
0.181283
0.180094
0.178781
0.177819
0.177869
0.179396
0.182601
0.186484
0.189414
0.190441
0.190359
0.178572
0.153822
0.155882
0.159036
0.162585
0.166063
0.175133
0.164818
0.178334
0.175967
0.190207
0.17849
0.165044
0.18717
0.174492
0.174365
0.181373
0.174053
0.178934
0.180586
0.176524
0.178286
0.179117
0.177285
0.175846
0.175969
0.176214
0.176217
0.175352
0.173252
0.171822
0.171104
0.17099
0.172238
0.175397
0.180121
0.185097
0.188415
0.189274
0.189104
0.165624
0.14208
0.145146
0.149431
0.15352
0.161863
0.160138
0.166339
0.167001
0.172926
0.174799
0.146663
0.181637
0.152894
0.172837
0.162532
0.167955
0.173534
0.172267
0.175032
0.172651
0.173597
0.172922
0.171648
0.169476
0.167043
0.16552
0.164806
0.164104
0.161439
0.158999
0.157908
0.157621
0.15937
0.163988
0.170946
0.178083
0.182944
0.184717
0.18545
0.149096
0.126969
0.132501
0.136445
0.146195
0.147907
0.145803
0.149773
0.151311
0.161186
0.143305
0.158295
0.154028
0.159502
0.153548
0.162373
0.158748
0.162788
0.165877
0.166148
0.16236
0.166274
0.164048
0.160472
0.155585
0.151724
0.149338
0.147246
0.144957
0.140028
0.136068
0.134906
0.137263
0.143905
0.155342
0.16811
0.178127
0.183054
0.183498
0.182168
0.128968
0.111215
0.110476
0.123829
0.122744
0.125002
0.137792
0.145632
0.153952
0.143268
0.136171
0.154875
0.139322
0.14503
0.137053
0.142592
0.149874
0.152492
0.156817
0.15837
0.150848
0.157676
0.153081
0.14538
0.137191
0.130742
0.126394
0.12382
0.12069
0.116006
0.109322
0.110536
0.115606
0.128155
0.140662
0.155221
0.168813
0.176613
0.177107
0.174891
0.112295
0.0740453
0.0963739
0.0977944
0.115123
0.125939
0.133688
0.140926
0.143957
0.131248
0.14705
0.13455
0.13119
0.122139
0.133932
0.129152
0.135207
0.138872
0.141104
0.139501
0.1292
0.133428
0.13231
0.121165
0.118739
0.114319
0.108109
0.101667
0.095594
0.0840941
0.075272
0.0741813
0.082678
0.0882146
0.114981
0.143638
0.161523
0.168297
0.166001
0.16807
0.0713038
0.0696456
0.0703864
0.0916234
0.100322
0.110478
0.130585
0.15066
0.152985
0.148328
0.140957
0.131646
0.14581
0.134312
0.113715
0.120814
0.121832
0.127398
0.122532
0.105868
0.0937147
0.118462
0.111299
0.127621
0.116162
0.0997941
0.0901654
0.0843013
0.0720255
0.0623956
0.0422282
0.0359754
0.0262249
0.0534635
0.0778731
0.117789
0.147121
0.159997
0.15762
0.155472
0.0598428
0.030034
0.0432011
0.0810248
0.0968955
0.0924273
0.141734
0.179758
0.188846
0.17428
0.160505
0.166532
0.18289
0.161771
0.140448
0.111055
0.122753
0.108484
0.105167
0.0972483
0.0990752
0.103237
0.12388
0.111483
0.110132
0.093915
0.081376
0.0821022
0.0758161
0.0729386
0.0630575
0.0397402
0.0261837
0.000895328
0.0307209
0.10762
0.135661
0.146524
0.143025
0.14194
0.03421
-0.00505443
0.0222964
0.105271
0.0989826
0.196111
0.214568
0.232578
0.226225
0.316368
0.38083
0.253437
0.222164
0.261056
0.2116
0.0805241
0.0942673
0.115309
0.124756
0.115411
0.121046
0.13178
0.137661
0.136686
0.0986249
0.0557288
0.129263
0.160971