# vtk DataFile Version 4.0
Nusif Fluid VTK output
ASCII
DATASET STRUCTURED_POINTS
DIMENSIONS 40 30 1
ORIGIN 0 0 0 
SPACING 0.2 0.2 1
POINT_DATA 1200 

VECTORS velocity double
0.00900788 -0.00899874  0
0.0267955 -0.00873185  0
0.0438365 -0.00821261  0
0.059612 -0.00746479  0
0.0736967 -0.00652066  0
0.0857355 -0.00541768  0
0.0954505 -0.00419592  0
0.102645 -0.00289619  0
0.107203 -0.00155895  0
0.10909 -0.000224  0
0.108348 0.00106969  0
0.105099 0.00228417  0
0.0995348 0.00338433  0
0.0919156 0.00433998  0
0.0825521 0.00512877  0
0.0717896 0.00573914  0
0.0599834 0.00617265  0
0.0474726 0.00644391  0
0.0345581 0.00657648  0
0.0214923 0.00659531  0
0.00848521 0.00651798  0
-0.00427438 0.00634796  0
-0.016587 0.0060712  0
-0.0282148 0.00566339  0
-0.0388693 0.00509802  0
-0.0482174 0.00435725  0
-0.0559053 0.00343801  0
-0.0615898 0.00235412  0
-0.0649717 0.00113549  0
-0.0658254 -0.000173973  0
-0.0640265 -0.00151702  0
-0.0595797 -0.00282191  0
-0.0526551 -0.00399477  0
-0.0436452 -0.00490716  0
-0.0332423 -0.00538789  0
-0.022502 -0.00524451  0
-0.0127953 -0.00435444  0
-0.0055008 -0.0028323  0
-0.00140413 -0.00115667  0
-9.68091e-05 -4.29694e-05  0
0.00927437 -0.0272231  0
0.027581 -0.0264103  0
0.0451031 -0.0248292  0
0.0613033 -0.0225541  0
0.0757433 -0.0196848  0
0.0880597 -0.0163363  0
0.0979717 -0.0126306  0
0.105282 -0.00869122  0
0.109875 -0.00463994  0
0.111718 -0.000596448  0
0.110856 0.00332184  0
0.107414 0.00699982  0
0.101593 0.01033  0
0.0936654 0.0132188  0
0.0839604 0.0155959  0
0.0728473 0.0174252  0
0.0607058 0.018712  0
0.0478951 0.019504  0
0.0347251 0.0198789  0
0.0214424 0.0199196  0
0.00823654 0.0196851  0
-0.00473173 0.0191875  0
-0.0172882 0.0183799  0
-0.0292066 0.0171803  0
-0.0401917 0.0155005  0
-0.0498896 0.0132809  0
-0.0579168 0.0105099  0
-0.063899 0.00722972  0
-0.0675097 0.00353322  0
-0.0685035 -0.00044342  0
-0.066746 -0.00452334  0
-0.0622423 -0.00848561  0
-0.0551744 -0.0120432  0
-0.0459553 -0.0148074  0
-0.0353003 -0.0162651  0
-0.0242802 -0.0158452  0
-0.014264 -0.0131898  0
-0.0066146 -0.00864699  0
-0.00210558 -0.00364526  0
-0.000337042 -0.000319655  0
0.00981947 -0.0462172  0
0.0291874 -0.0448189  0
0.0476912 -0.0421021  0
0.064755 -0.0382006  0
0.0799134 -0.0332917  0
0.0927887 -0.0275761  0
0.103095 -0.0212637  0
0.110635 -0.0145632  0
0.115297 -0.00767856  0
0.117051 -0.000809401  0
0.115947 0.00584715  0
0.112114 0.0120949  0
0.105769 0.0177467  0
0.0972091 0.022636  0
0.0868039 0.0266353  0
0.0749714 0.0296777  0
0.0621442 0.0317743  0
0.0487251 0.033018  0
0.0350445 0.0335621  0
0.0213366 0.0335738  0
0.00774646 0.0331738  0
-0.00562866 0.0323892  0
-0.0186711 0.0311243  0
-0.0311796 0.0292099  0
-0.0428449 0.0264684  0
-0.0532664 0.0227795  0
-0.061997 0.0181159  0
-0.0685964 0.0125516  0
-0.0726809 0.00625203  0
-0.0739633 -0.000540816  0
-0.0722871 -0.00751467  0
-0.0676573 -0.0142825  0
-0.0602782 -0.0203477  0
-0.0506039 -0.0250458  0
-0.0393987 -0.0275205  0
-0.0277726 -0.0268433  0
-0.0171057 -0.022455  0
-0.0087422 -0.0149564  0
-0.00343329 -0.00670884  0
-0.000789313 -0.00122866  0
0.0106694 -0.066602  0
0.0316897 -0.0645449  0
0.0517144 -0.060558  0
0.070106 -0.0548535  0
0.0863596 -0.0477043  0
0.100079 -0.0394121  0
0.110977 -0.0302838  0
0.11886 -0.0206182  0
0.123624 -0.0107011  0
0.125243 -0.000810062  0
0.123768 0.00877771  0
0.119338 0.0177781  0
0.112185 0.0259111  0
0.102646 0.0329198  0
0.0911505 0.0386019  0
0.0781965 0.0428475  0
0.064304 0.0456744  0
0.0499493 0.0472418  0
0.0354994 0.0478189  0
0.0211687 0.0477055  0
0.00702689 0.0471241  0
-0.0069401 0.0461312  0
-0.0207135 0.0445485  0
-0.0341336 0.0420646  0
-0.0468654 0.0383603  0
-0.0584299 0.0332217  0
-0.0682748 0.0265956  0
-0.0758521 0.0185944  0
-0.0806856 0.00947341  0
-0.0824208 -0.000396799  0
-0.0808645 -0.0105419  0
-0.0760193 -0.0203798  0
-0.0681191 -0.0291562  0
-0.0576813 -0.0359207  0
-0.0455602 -0.0394919  0
-0.0329471 -0.0386125  0
-0.0212568 -0.0325561  0
-0.0118158 -0.022199  0
-0.00534051 -0.010812  0
-0.00143838 -0.00324929  0
0.0118658 -0.0890284  0
0.0352051 -0.0861948  0
0.0573476 -0.0807268  0
0.0775675 -0.0729475  0
0.0953104 -0.0632568  0
0.110164 -0.0520809  0
0.121845 -0.0398393  0
0.130179 -0.0269251  0
0.135077 -0.0137015  0
0.136518 -0.000515411  0
0.134551 0.0122783  0
0.129314 0.0242987  0
0.121059 0.0351517  0
0.110169 0.0444615  0
0.0971589 0.0519204  0
0.0826404 0.0573549  0
0.067262 0.0607911  0
0.0516107 0.0624843  0
0.0361104 0.0628802  0
0.0209508 0.0624882  0
0.00608822 0.0616994  0
-0.00866402 0.0606283  0
-0.0234395 0.0589528  0
-0.0381378 0.0561288  0
-0.0523806 0.0516179  0
-0.06557 0.0450649  0
-0.0769992 0.0363755  0
-0.0859656 0.0257108  0
-0.0918608 0.0134417  0
-0.094233 0.000100461  0
-0.0928335 -0.0136375  0
-0.087639 -0.0268996  0
-0.0789369 -0.0387157  0
-0.067377 -0.0478211  0
-0.0539384 -0.0526563  0
-0.0399086 -0.0516461  0
-0.0267608 -0.0439632  0
-0.0158224 -0.0308063  0
-0.00778922 -0.016367  0
-0.00226514 -0.00676817  0
0.0134626 -0.114243  0
0.0398843 -0.110452  0
0.0648111 -0.103187  0
0.087399 -0.0929396  0
0.107037 -0.0802868  0
0.123304 -0.0658133  0
0.135946 -0.0500708  0
0.144829 -0.0335519  0
0.1499 -0.0166844  0
0.151146 0.000137199  0
0.148599 0.016496  0
0.142375 0.0318991  0
0.132737 0.0458033  0
0.120124 0.0576711  0
0.105156 0.0670463  0
0.0885991 0.0736614  0
0.0712706 0.0775494  0
0.0539047 0.079101  0
0.0370073 0.0790183  0
0.0207429 0.0781306  0
0.00491956 0.077099  0
-0.0108886 0.076144  0
-0.0270215 0.0746958  0
-0.0434444 0.0718556  0
-0.0597122 0.0667541  0
-0.07507 0.0588331  0
-0.0886091 0.0479378  0
-0.0994234 0.0342936  0
-0.106728 0.0184228  0
-0.10994 0.0010637  0
-0.108679 -0.016767  0
-0.102974 -0.0340869  0
-0.0932334 -0.0494787  0
-0.080144 -0.0612754  0
-0.0648436 -0.0675627  0
-0.0488299 -0.0664728  0
-0.0336948 -0.0571257  0
-0.0207938 -0.0411439  0
-0.010785 -0.0236752  0
-0.00326215 -0.0120957  0
0.01551 -0.143097  0
0.0458652 -0.138076  0
0.0742984 -0.128561  0
0.0998105 -0.115302  0
0.121735 -0.0991237  0
0.139669 -0.0808162  0
0.153417 -0.0610951  0
0.162932 -0.0405639  0
0.168238 -0.0196882  0
0.169343 0.00115132  0
0.166223 0.0215125  0
0.158928 0.0407648  0
0.147707 0.0581588  0
0.133056 0.0729405  0
0.115724 0.0844395  0
0.0966586 0.0922526  0
0.0768804 0.0964263  0
0.0572972 0.0975339  0
0.0385167 0.0966238  0
0.0206877 0.0949779  0
0.00345235 0.0936676  0
-0.013896 0.0930832  0
-0.0319154 0.0922631  0
-0.0506272 0.0897851  0
-0.0695075 0.0843389  0
-0.0876199 0.0750882  0
-0.103822 0.0617915  0
-0.11696 0.0447567  0
-0.126035 0.0247008  0
-0.130206 0.00272103  0
-0.129175 -0.0201544  0
-0.122914 -0.0422573  0
-0.111694 -0.0618661  0
-0.0965221 -0.0768425  0
-0.0787695 -0.0847847  0
-0.0601066 -0.0835914  0
-0.0423211 -0.0724958  0
-0.0268815 -0.0536746  0
-0.014435 -0.033195  0
-0.00448778 -0.0196418  0
0.0180125 -0.17649  0
0.0531494 -0.169862  0
0.0857877 -0.157479  0
0.114744 -0.140486  0
0.139298 -0.120053  0
0.159083 -0.0972393  0
0.174007 -0.0729764  0
0.184195 -0.0480192  0
0.189845 -0.0228221  0
0.191012 0.00238096  0
0.187535 0.0272476  0
0.179292 0.0509344  0
0.166484 0.0723844  0
0.149647 0.0905701  0
0.129651 0.104506  0
0.107666 0.113602  0
0.0849406 0.117945  0
0.0625483 0.118355  0
0.041186 0.116308  0
0.0210019 0.113667  0
0.0014973 0.112074  0
-0.0182508 0.112136  0
-0.0389552 0.112304  0
-0.0606546 0.110526  0
-0.0827555 0.104951  0
-0.104187 0.0943877  0
-0.123573 0.0784462  0
-0.139489 0.0575213  0
-0.150589 0.0326687  0
-0.156135 0.00498213  0
-0.155434 -0.0237723  0
-0.148287 -0.0516749  0
-0.135363 -0.0763217  0
-0.117544 -0.0950504  0
-0.0964972 -0.104981  0
-0.0743756 -0.103744  0
-0.0532522 -0.0908283  0
-0.0345978 -0.069025  0
-0.019 -0.0454822  0
-0.00599202 -0.029929  0
0.0208514 -0.215215  0
0.0614106 -0.20651  0
0.0987962 -0.190486  0
0.131587 -0.168856  0
0.158998 -0.143277  0
0.180701 -0.115132  0
0.196721 -0.0856565  0
0.207478 -0.0559114  0
0.213572 -0.0263006  0
0.215228 0.00340877  0
0.211949 0.0333469  0
0.203195 0.0622035  0
0.189102 0.0883897  0
0.170201 0.110674  0
0.147432 0.127536  0
0.122241 0.138118  0
0.0961433 0.142621  0
0.0703354 0.142246  0
0.0455209 0.138959  0
0.0218224 0.135262  0
-0.00130071 0.133476  0
-0.0247618 0.134318  0
-0.049164 0.135602  0
-0.0745233 0.134659  0
-0.100333 0.129099  0
-0.125529 0.117239  0
-0.148567 0.0983898  0
-0.167626 0.0730603  0
-0.181399 0.0425005  0
-0.18859 0.00824328  0
-0.188411 -0.0275716  0
-0.180669 -0.0624273  0
-0.165559 -0.0932546  0
-0.144421 -0.116703  0
-0.119237 -0.129114  0
-0.0926584 -0.127866  0
-0.0671761 -0.112934  0
-0.0443916 -0.0879987  0
-0.0248386 -0.0612639  0
-0.00792917 -0.043651  0
0.0237706 -0.259689  0
0.0699656 -0.248454  0
0.112352 -0.227937  0
0.149156 -0.200623  0
0.179502 -0.16889  0
0.203041 -0.134385  0
0.219734 -0.0987389  0
0.23046 -0.0639327  0
0.236813 -0.0303489  0
0.239585 0.00340466  0
0.237401 0.0391916  0
0.22868 0.0742125  0
0.213805 0.105725  0
0.193286 0.133134  0
0.167837 0.153669  0
0.139318 0.16607  0
0.109644 0.170811  0
0.0800852 0.169794  0
0.0511391 0.165542  0
0.0227614 0.161126  0
-0.00548993 0.159364  0
-0.0339893 0.160765  0
-0.0628312 0.162773  0
-0.0920798 0.162473  0
-0.121655 0.157044  0
-0.150849 0.144061  0
-0.177994 0.122196  0
-0.200996 0.0918168  0
-0.218056 0.0549084  0
-0.227878 0.0132219  0
-0.229161 -0.0310676  0
-0.22108 -0.0744621  0
-0.203835 -0.113139  0
-0.178484 -0.142876  0
-0.147627 -0.158596  0
-0.115194 -0.157031  0
-0.0844388 -0.139598  0
-0.0567311 -0.111408  0
-0.0322492 -0.0815215  0
-0.0103955 -0.0617787  0
0.0265342 -0.309837  0
0.0782547 -0.295875  0
0.125717 -0.269985  0
0.166473 -0.235753  0
0.199719 -0.196969  0
0.224898 -0.154642  0
0.240981 -0.110874  0
0.249644 -0.0708034  0
0.255053 -0.0348579  0
0.259732 0.000844635  0
0.259699 0.0443513  0
0.250449 0.0874063  0
0.234634 0.123601  0
0.21315 0.157641  0
0.185335 0.182804  0
0.153666 0.1975  0
0.120675 0.202421  0
0.0878211 0.200973  0
0.0551408 0.196363  0
0.0221201 0.192083  0
-0.0115295 0.190685  0
-0.0450513 0.191843  0
-0.0776675 0.193533  0
-0.109764 0.193436  0
-0.142263 0.188537  0
-0.175379 0.17528  0
-0.207686 0.150904  0
-0.235929 0.114712  0
-0.257831 0.0713712  0
-0.272071 0.0211725  0
-0.276438 -0.033032  0
-0.26912 -0.0874416  0
-0.249641 -0.136541  0
-0.219212 -0.174843  0
-0.180866 -0.195409  0
-0.140826 -0.192316  0
-0.10412 -0.17141  0
-0.0712418 -0.139794  0
-0.0412593 -0.107188  0
-0.0134279 -0.0854108  0
0.0292847 -0.365489  0
0.0868007 -0.3491  0
0.139538 -0.316575  0
0.183633 -0.273627  0
0.219859 -0.22818  0
0.246368 -0.174732  0
0.258185 -0.118295  0
0.259655 -0.0731273  0
0.260968 -0.0388686  0
0.268792 -0.00725916  0
0.272042 0.0496256  0
0.258085 0.105725  0
0.238658 0.140912  0
0.216937 0.18392  0
0.18786 0.213799  0
0.154228 0.23219  0
0.118706 0.236626  0
0.0841502 0.234557  0
0.0503154 0.229675  0
0.0161368 0.226353  0
-0.0190286 0.225611  0
-0.0535852 0.225377  0
-0.0862149 0.225629  0
-0.117895 0.2255  0
-0.151105 0.222571  0
-0.18801 0.211697  0
-0.228286 0.187474  0
-0.264542 0.143015  0
-0.292916 0.0937104  0
-0.313527 0.0340669  0
-0.322233 -0.0324742  0
-0.316371 -0.100801  0
-0.295657 -0.16295  0
-0.26206 -0.212079  0
-0.21625 -0.241967  0
-0.167476 -0.23417  0
-0.125003 -0.208333  0
-0.0872129 -0.17317  0
-0.0515638 -0.139059  0
-0.0169473 -0.115592  0
0.0325502 -0.427148  0
0.0968714 -0.408907  0
0.154214 -0.366457  0
0.198749 -0.311985  0
0.239448 -0.266356  0
0.265147 -0.18837  0
0.263256 -0.114189  0
0.250684 -0.0657392  0
0.243623 -0.0401154  0
0.253368 -0.0231879  0
0.259923 0.0561411  0
0.238354 0.135127  0
0.214135 0.155548  0
0.19081 0.214722  0
0.162719 0.240553  0
0.130816 0.271356  0
0.0914691 0.272713  0
0.0561987 0.268679  0
0.025779 0.260193  0
-9.55889e-05 0.256271  0
-0.0249217 0.256069  0
-0.0495016 0.254441  0
-0.0737819 0.253859  0
-0.0990639 0.25462  0
-0.129701 0.257695  0
-0.170894 0.255084  0
-0.227569 0.241415  0
-0.276402 0.174549  0
-0.30825 0.122775  0
-0.333297 0.0510381  0
-0.343056 -0.0305764  0
-0.33716 -0.11408  0
-0.319368 -0.18778  0
-0.295729 -0.244098  0
-0.251778 -0.299327  0
-0.195622 -0.281358  0
-0.148754 -0.250095  0
-0.105778 -0.211779  0
-0.0634125 -0.178087  0
-0.0209323 -0.153277  0
0.0360045 -0.495519  0
0.105497 -0.47397  0
0.159483 -0.412329  0
0.195503 -0.346274  0
0.245703 -0.322569  0
0.258159 -0.170015  0
0.228698 -0.100993  0
0.213895 -0.0513613  0
0.201887 -0.0352265  0
0.194352 -0.0300891  0
0.19672 0.0543161  0
0.206758 0.14868  0
0.205139 0.16803  0
0.153539 0.277361  0
0.120183 0.239653  0
0.0973865 0.327344  0
0.040403 0.313444  0
0.000288296 0.303722  0
-0.02227 0.278517  0
-0.02464 0.266579  0
-0.020656 0.26699  0
-0.0189944 0.266826  0
-0.0228558 0.270005  0
-0.0333317 0.274624  0
-0.0584395 0.293836  0
-0.101069 0.303161  0
-0.197433 0.346663  0
-0.26763 0.188619  0
-0.283808 0.157024  0
-0.304418 0.0626385  0
-0.303311 -0.0333276  0
-0.294174 -0.126165  0
-0.286821 -0.200651  0
-0.298315 -0.24318  0
-0.281698 -0.360613  0
-0.22598 -0.331657  0
-0.178451 -0.293815  0
-0.13035 -0.258747  0
-0.0772676 -0.226178  0
-0.025267 -0.199285  0
0.0360969 -0.567429  0
0.0937836 -0.528949  0
0.120597 -0.437952  0
0.135962 -0.371839  0
0.146103 -0.357146  0
0.164 -0.252471  0
0.1767 -0.0468761  0
0.182409 -0.0218995  0
0.193488 -0.0153905  0
0.154532 -0.0135  0
0.111171 0.0244295  0
0.144072 0.0720496  0
0.115808 0.0871155  0
0.0884812 0.275233  0
0.126554 0.227706  0
0.103404 0.385432  0
0.0336292 0.382311  0
-0.0383848 0.347276  0
-0.0589045 0.278428  0
-0.0363328 0.246854  0
-0.00112121 0.247907  0
0.0280385 0.255477  0
0.0406339 0.273012  0
0.0387237 0.284397  0
-0.00297998 0.351173  0
-0.0418291 0.327499  0
-0.0830414 0.34458  0
-0.166046 0.228581  0
-0.199884 0.222751  0
-0.198384 0.0325723  0
-0.204895 -0.0184703  0
-0.211405 -0.0658444  0
-0.237737 -0.10124  0
-0.204279 -0.114929  0
-0.18028 -0.373944  0
-0.209617 -0.357333  0
-0.200004 -0.32509  0
-0.155684 -0.319608  0
-0.0889978 -0.284699  0
-0.0285083 -0.252868  0
0 -0.603428  0
0.00400511 -0.576983  0
0.036318 -0.221588  0
0.0929474 -0.19099  0
0.133686 -0.178573  0
0.0730517 -0.178573  0
0 0  0
0 0  0
0 0  0
0 0  0
0 0  0
0 0  0
0 0  0
0.063277 0.113853  0
0.036116 0.113853  0
0.00278913 0.204291  0
0.0493729 0.400849  0
0.0388456 0.372762  0
0.0127282 0.299773  0
-0.00119545 0.217152  0
0.0292934 0.212298  0
0.0555842 0.236026  0
0.0429471 0.292799  0
0.0223144 0.28735  0
0.0215042 0.338686  0
-0.0105676 0.16375  0
-0.0830414 0.135187  0
-0.166046 0.135187  0
-0.103919 0.135187  0
0 0  0
0 0  0
0 0  0
0 0  0
0 0  0
-0.104809 -0.178667  0
-0.220932 -0.178667  0
-0.173402 -0.344461  0
-0.114556 -0.354218  0
-0.0868475 -0.344292  0
-0.0295695 -0.31085  0
0 -0.301714  0
0 -0.301714  0
0 0  0
0 0  0
0 0  0
0 0  0
0 0  0
0 0  0
0 0  0
0 0  0
0 0  0
0 0  0
0 0  0
0 0  0
0 0  0
0 0  0
0.0194228 0.186381  0
0.0622814 0.186381  0
0.0688147 0.265473  0
0.0519123 0.205055  0
0.0474328 0.19858  0
0.0429533 0.228128  0
0.0456746 0.27078  0
0.0353552 0.143675  0
0.0111572 0.143675  0
0 0  0
0 0  0
0 0  0
0 0  0
0 0  0
0 0  0
0 0  0
0 0  0
0 0  0
0 0  0
0 0  0
-0.057278 -0.177109  0
-0.105664 -0.177109  0
-0.0937468 -0.186  0
-0.0453604 -0.17021  0
0 0  0
0 0  0
0 0  0
0 0  0
0 0  0
0 0  0
0 0  0
0 0  0
0 0  0
0 0  0
0 0  0
0 0  0
0 0  0
0 0  0
0 0  0
0 0  0
0 0  0
0 0  0
0.0259562 0.102528  0
0.0529099 0.102528  0
0.0358964 0.10153  0
0.0304193 0.114064  0
0.0214767 0.114064  0
0 0  0
0 0  0
0 0  0
0 0  0
0 0  0
0 0  0
0 0  0
0 0  0
0 0  0
0 0  0
0 0  0
0 0  0
0 0  0
0 0  0
0 0  0
0 0  0
0 0  0
0 0  0
0 0  0
0 0  0
0 0  0
0 0  0
0 0  0
0 0  0
0 0  0
0 0  0
0 0  0
0 0  0
0 0  0
0 0  0
0 0  0
0 0  0
0 0  0
0 0  0
0 0  0
0 0  0
0 0  0
0 0  0
0 0  0
0 0  0
0 0  0
0 0  0
0 0  0
0 0  0
0 0  0
0 0  0
0 0  0
0 0  0
0 0  0
0 0  0
0 0  0
0 0  0
0 0  0
0 0  0
0 0  0
0 0  0
0 0  0
0 0  0
0 0  0
0 0  0
0 0  0
0 0  0
0 0  0
0 0  0
0 0  0
0 0  0
0 0  0
0 0  0
0 0  0
0 0  0
0 0  0
0 0  0
0 0  0
0 0  0
0 0  0
0 0  0
0 0  0
0 0  0
0 0  0
0 0  0
0 0  0
0 0  0
0 0  0
0 0  0
0 0  0
0 0  0
0 0  0
0 0  0
0 0  0
0 0  0
0 0  0
0 0  0
0 0  0
0 0  0
0 0  0
0 0  0
0 0  0
0 0  0
0 0  0
0 0  0
0 0  0
0 0  0
0 0  0
0 0  0
0 0  0
0 0  0
0 0  0
0 0  0
0 0  0
0 0  0
0 0  0
0 0  0
0 0  0
0 0  0
0 0  0
0 0  0
0 0  0
0 0  0
0 0  0
0 0  0
0 0  0
0 0  0
0 0  0
0 0  0
0 0  0
0 0  0
0 0  0
0 0  0
0 0  0
0 0  0
0 0  0
0 0  0
0 0  0
0 0  0
0 0  0
0 0  0
0 0  0
0 0  0
0 0  0
0 0  0
0 0  0
0 0  0
0 0  0
0 0  0
0 0  0
0 0  0
0 0  0
0 0  0
0 0  0
0 0  0
0 0  0
0 0  0
0 0  0
0 0  0
0 0  0
0 0  0
0 0  0
0 0  0
0 0  0
0 0  0
0 0  0
0 0  0
0 0  0
0 0  0
0 0  0
0 0  0
0 0  0
0 0  0
0 0  0
0 0  0
0 0  0
0 0  0
0 0  0
0 0  0
0 0  0
0 0  0
0 0  0
0 0  0
0 0  0
0 0  0
0 0  0
0 0  0
0 0  0
0 0  0
0 0  0
0 0  0
0 0  0
0 0  0
0 0  0
0 0  0
0 0  0
0 0  0
0 0  0
0 0  0
0 0  0
0 0  0
0 0  0
0 0  0
0 0  0
0 0  0
0 0  0
0 0  0
0 0  0
0 0  0
0 0  0
0 0  0
0 0  0
0 0  0
0 0  0
0 0  0
0 0  0
0 0  0
0 0  0
0 0  0
0 0  0
0 0  0
0 0  0
0 0  0
0 0  0
0 0  0
0 0  0
0 0  0
0 0  0
0 0  0
0 0  0
0 0  0
0 0  0
0 0  0
0 0  0
0 0  0
0 0  0
0 0  0
0 0  0
0 0  0
0 0  0
0 0  0
0 0  0
0 0  0
0 0  0
0 0  0
0 0  0
0 0  0
0 0  0
0 0  0
0 0  0
0 0  0
0 0  0
0 0  0
0 0  0
0 0  0
0 0  0
0 0  0
0 0  0
0 0  0
0 0  0
0 0  0
0 0  0
0 0  0
0 0  0
0 0  0
0 0  0
0 0  0
0 0  0
0 0  0
0 0  0
0 0  0
0 0  0
0 0  0
0 0  0
0 0  0
0 0  0
0 0  0
0 0  0
0 0  0
0 0  0
0 0  0
0 0  0
0 0  0
0 0  0
0 0  0
0 0  0
0 0  0
0 0  0
0 0  0
0 0  0
0 0  0
0 0  0
0 0  0
0 0  0
0 0  0
0 0  0
0 0  0
0 0  0
0 0  0
0 0  0
0 0  0
0 0  0
0 0  0
0 0  0
0 0  0
0 0  0
0 0  0
0 0  0
0 0  0
0 0  0
0 0  0
0 0  0
0 0  0
0 0  0
0 0  0
0 0  0
0 0  0
0 0  0
0 0  0
0 0  0
0 0  0
0 0  0
0 0  0
0 0  0
0 0  0
0 0  0
0 0  0
0 0  0
0 0  0
0 0  0
0 0  0
0 0  0
0 0  0
0 0  0
0 0  0
0 0  0
0 0  0
0 0  0
0 0  0
0 0  0
0 0  0
0 0  0
0 0  0
0 0  0
0 0  0
0 0  0
0 0  0
0 0  0
0 0  0
0 0  0
0 0  0
0 0  0
0 0  0
0 0  0
0 0  0
0 0  0
0 0  0
0 0  0
0 0  0
0 0  0
0 0  0
0 0  0
0 0  0
0 0  0
0 0  0
0 0  0
0 0  0
0 0  0
0 0  0
0 0  0
0 0  0
0 0  0
0 0  0
0 0  0
0 0  0
0 0  0
0 0  0
0 0  0
0 0  0
0 0  0
0 0  0
0 0  0
0 0  0
0 0  0
0 0  0
0 0  0
0 0  0
0 0  0
0 0  0
0 0  0
0 0  0
0 0  0
0 0  0
0 0  0
0 0  0
0 0  0
0 0  0
0 0  0
0 0  0
0 0  0
0 0  0
0 0  0
0 0  0
0 0  0
0 0  0
0 0  0
0 0  0
0 0  0
0 0  0
0 0  0
0 0  0
0 0  0
0 0  0
0 0  0
0 0  0
0 0  0
0 0  0
0 0  0
0 0  0
0 0  0
0 0  0
0 0  0
0 0  0
0 0  0
0 0  0
0 0  0
0 0  0
0 0  0
0 0  0
0 0  0
0 0  0
0 0  0
0 0  0
0 0  0
0 0  0
0 0  0
0 0  0
0 0  0
0 0  0
0 0  0
0 0  0
0 0  0
0 0  0
0 0  0
0 0  0
0 0  0
0 0  0
0 0  0
0 0  0
0 0  0
0 0  0
0 0  0
0 0  0
0 0  0
0 0  0
0 0  0
0 0  0
0 0  0
0 0  0
0 0  0
0 0  0
0 0  0
0 0  0
0 0  0
0 0  0
0 0  0
0 0  0
0 0  0
0 0  0
0 0  0
0 0  0
0 0  0
0 0  0
0 0  0
0 0  0
0 0  0
0 0  0
0 0  0
0 0  0
0 0  0
0 0  0
0 0  0
0 0  0
0 0  0
0 0  0
0 0  0
0 0  0
0 0  0
0 0  0
0 0  0
0 0  0
0 0  0
0 0  0
0 0  0
0 0  0
0 0  0
0 0  0
0 0  0
0 0  0
0 0  0
0 0  0
0 0  0

SCALARS pressure double 1
LOOKUP_TABLE default
3.63129
3.63025
3.62856
3.62644
3.62415
3.622
3.62031
3.61936
3.61937
3.62048
3.62274
3.62608
3.63037
3.63536
3.64076
3.64624
3.65147
3.65613
3.65996
3.66279
3.66448
3.66499
3.66437
3.6628
3.66049
3.65772
3.65477
3.65192
3.64942
3.64746
3.64614
3.6455
3.64544
3.64585
3.64655
3.64735
3.64813
3.64879
3.64929
3.64957
3.42259
3.42149
3.4197
3.41741
3.41494
3.4126
3.41073
3.40964
3.40956
3.41065
3.41296
3.41643
3.4209
3.42613
3.4318
3.43756
3.44305
3.44793
3.45194
3.45487
3.45659
3.45705
3.45629
3.45454
3.45201
3.449
3.4458
3.44274
3.44007
3.43799
3.43663
3.43599
3.436
3.43651
3.43734
3.4383
3.43924
3.44006
3.44067
3.44101
3.2057
3.20449
3.20244
3.1998
3.19691
3.19414
3.19189
3.1905
3.19025
3.19129
3.19371
3.19743
3.2023
3.20803
3.21426
3.22061
3.22665
3.23201
3.23638
3.23952
3.2413
3.24165
3.24064
3.2385
3.23551
3.23199
3.2283
3.22479
3.22178
3.21948
3.21803
3.21742
3.21758
3.21833
3.21945
3.22069
3.22185
3.22282
3.22349
3.22381
2.98071
2.9793
2.97682
2.9736
2.97002
2.96656
2.96369
2.96182
2.96126
2.96223
2.96481
2.96894
2.97443
2.98096
2.9881
2.99538
3.00232
3.00845
3.0134
3.01689
3.01876
3.01894
3.01751
3.01477
3.01102
3.00669
3.00221
2.99801
2.99445
2.9918
2.9902
2.98966
2.99006
2.99105
2.99226
2.9935
2.99474
2.99593
2.99696
2.99758
2.74775
2.74603
2.74292
2.7388
2.73421
2.7297
2.72588
2.72326
2.72225
2.7231
2.72591
2.73064
2.73704
2.74474
2.75321
2.76188
2.77013
2.77741
2.78322
2.78723
2.78924
2.78913
2.78708
2.78342
2.77857
2.77305
2.76741
2.76217
2.75778
2.7546
2.75278
2.75234
2.75241
2.75288
2.75406
2.75596
2.75826
2.76059
2.76238
2.76349
2.50699
2.50482
2.50078
2.49537
2.48926
2.48322
2.47804
2.47439
2.47275
2.47343
2.47657
2.4821
2.48976
2.49907
2.50943
2.52008
2.53021
2.5391
2.54614
2.55088
2.55307
2.55258
2.54963
2.54468
2.53823
2.53096
2.52358
2.5168
2.51123
2.50732
2.50528
2.50308
2.50253
2.50394
2.50653
2.50993
2.51394
2.51772
2.52076
2.52212
2.25865
2.25585
2.25045
2.24315
2.2349
2.22673
2.21968
2.21459
2.21208
2.21254
2.21608
2.22266
2.232
2.24357
2.25653
2.2699
2.28265
2.29382
2.3026
2.30838
2.31082
2.30975
2.30557
2.29865
2.28984
2.28001
2.27019
2.26133
2.2542
2.24936
2.24353
2.24235
2.24293
2.24503
2.24958
2.25575
2.26178
2.2668
2.27065
2.27309
2.00304
1.99925
1.99195
1.98207
1.97083
1.95967
1.95001
1.943
1.93939
1.93949
1.94353
1.95146
1.96301
1.97755
1.99409
2.01127
2.02767
2.042
2.05317
2.0604
2.06322
2.06139
2.05516
2.0455
2.03328
2.0199
2.00672
1.995
1.98574
1.97538
1.97283
1.96975
1.97111
1.97651
1.98338
1.99122
1.99956
2.00823
2.01467
2.01795
1.74045
1.73535
1.72548
1.71201
1.69659
1.68124
1.66807
1.65857
1.65348
1.65318
1.65775
1.66727
1.68154
1.70008
1.7216
1.74406
1.76547
1.78416
1.79871
1.80796
1.81128
1.80803
1.79922
1.7855
1.76855
1.75009
1.73213
1.71652
1.70086
1.69339
1.68525
1.68539
1.68841
1.69435
1.70457
1.71703
1.73058
1.74248
1.75216
1.75742
1.47147
1.46459
1.45128
1.43296
1.41168
1.39037
1.37252
1.35993
1.35318
1.35233
1.3574
1.3685
1.38599
1.40978
1.43827
1.46812
1.49643
1.5211
1.5402
1.55226
1.55608
1.55125
1.53849
1.51926
1.49541
1.46966
1.44496
1.42217
1.40545
1.39188
1.38667
1.3848
1.38923
1.39924
1.41337
1.43204
1.45258
1.47152
1.48554
1.49316
1.19703
1.18767
1.16992
1.14525
1.11572
1.08542
1.06153
1.04568
1.03736
1.03592
1.04104
1.05334
1.07404
1.10447
1.14335
1.18357
1.22107
1.25375
1.27905
1.29488
1.29955
1.29245
1.27454
1.2475
1.21392
1.17748
1.14208
1.11371
1.09124
1.07568
1.06797
1.06729
1.07302
1.086
1.10688
1.13617
1.16718
1.19553
1.2166
1.22755
0.918646
0.905412
0.882384
0.850111
0.808854
0.763072
0.732333
0.71456
0.705695
0.703585
0.707748
0.719937
0.74261
0.780634
0.836696
0.891305
0.940151
0.983558
1.0171
1.03805
1.04405
1.03417
1.0095
0.972012
0.924583
0.872247
0.820403
0.787974
0.757431
0.738995
0.729465
0.728618
0.735805
0.751865
0.779813
0.82704
0.875521
0.917612
0.947971
0.963409
0.639139
0.617799
0.589921
0.551201
0.494074
0.414405
0.380573
0.36629
0.359554
0.35681
0.357956
0.367282
0.387568
0.429943
0.52205
0.594347
0.654132
0.712663
0.757152
0.785289
0.793458
0.780375
0.747017
0.69623
0.629344
0.554574
0.46785
0.447499
0.400599
0.379892
0.370505
0.369293
0.375774
0.392123
0.418912
0.505439
0.579848
0.642097
0.684154
0.704483
0.365302
0.319979
0.29405
0.258997
0.188365
0.00977129
0.00349576
0.00391714
0.00221891
0.00153725
-0.0028354
-0.00238181
0.00284716
0.0211083
0.219389
0.299176
0.358324
0.444869
0.503135
0.542436
0.554462
0.537354
0.492459
0.426494
0.330826
0.236503
0.0332304
0.122865
0.00790738
0.00126946
-0.00174551
-0.00280545
-0.00132559
0.00843523
-0.0187502
0.185013
0.286274
0.37631
0.43095
0.454741
0.120254
-0.0129332
-0.00187846
-0.00488679
-0.00995991
0
0
0
0
0
0
0
0
0
0.0254452
0.0112897
0.0215996
0.19234
0.258103
0.318061
0.336081
0.313517
0.250102
0.175787
0.0179856
0.00593155
0
0
0
0
0
0
0
0
0
-0.0449668
-0.00550266
0.133568
0.1955
0.216358
-0.00447007
0
0
0
0
0
0
0
0
0
0
0
0
0
0
0
0
0.0349264
0.0118378
0.12598
0.148768
0.120925
0.00939535
-0.00174246
0
0
0
0
0
0
0
0
0
0
0
0
0
-0.0455454
-0.0137742
-0.0146832
0
0
0
0
0
0
0
0
0
0
0
0
0
0
0
0
0
0
0
0.0193926
0.00216925
0.00272258
0
0
0
0
0
0
0
0
0
0
0
0
0
0
0
0
0
0
0
0
0
0
0
0
0
0
0
0
0
0
0
0
0
0
0
0
0
0
0
0
0
0
0
0
0
0
0
0
0
0
0
0
0
0
0
0
0
0
0
0
0
0
0
0
0
0
0
0
0
0
0
0
0
0
0
0
0
0
0
0
0
0
0
0
0
0
0
0
0
0
0
0
0
0
0
0
0
0
0
0
0
0
0
0
0
0
0
0
0
0
0
0
0
0
0
0
0
0
0
0
0
0
0
0
0
0
0
0
0
0
0
0
0
0
0
0
0
0
0
0
0
0
0
0
0
0
0
0
0
0
0
0
0
0
0
0
0
0
0
0
0
0
0
0
0
0
0
0
0
0
0
0
0
0
0
0
0
0
0
0
0
0
0
0
0
0
0
0
0
0
0
0
0
0
0
0
0
0
0
0
0
0
0
0
0
0
0
0
0
0
0
0
0
0
0
0
0
0
0
0
0
0
0
0
0
0
0
0
0
0
0
0
0
0
0
0
0
0
0
0
0
0
0
0
0
0
0
0
0
0
0
0
0
0
0
0
0
0
0
0
0
0
0
0
0
0
0
0
0
0
0
0
0
0
0
0
0
0
0
0
0
0
0
0
0
0
0
0
0
0
0
0
0
0
0
0
0
0
0
0
0
0
0
0
0
0
0
0
0
0
0
0
0
0
0
0
0
0
0
0
0
0
0
0
0
0
0
0
0
0
0
0
0
0
0
0
0
0
0
0
0
0
0
0
0
0
0
0
0
0
0
0
0
0
0
0
0
0
0
0
0
0
0
0
0
0
0
0
0
0
0
0
0
0
0
0
0
0
0
0
0
0
0
0
0
0
0
0
0
0
0
0
0
0
0
0
0
0
0
0
0
0
0
0
0
0
0
0
0
0
0
0
0
0
0
0
0
0
0
0
0
0
0
0
0
0
0
0
0
0
0
0
0
0
0
0
0
0
0
0
0
0
0
0
0
0
0
0
0
0
0
0
0
0
0
0
0
0
0
0
0
0
0
0
0
0
0
0
0
0
0
0
0
0
0
0
0
0
0
0
0
0
0
0
0
0
0
0
0
0
0
0
0
0
0
0
0
0
0
0
0
0
0
0
0
0
0
0
0
0
0
0
0
0
0
0
0
0
0
0
0
0
0
0
0
0
0
0
0
0
0
0
0
0
0
0
0
0
SCALARS rhs double 1
LOOKUP_TABLE default
-5.33102
-5.2834
-5.28026
-5.27687
-5.27326
-5.26975
-5.2666
-5.26413
-5.2624
-5.26158
-5.26147
-5.26207
-5.26311
-5.26441
-5.2658
-5.26709
-5.26816
-5.26893
-5.2694
-5.26958
-5.2702
-5.27048
-5.26852
-5.2677
-5.26667
-5.26551
-5.26436
-5.26343
-5.26288
-5.26297
-5.26374
-5.26522
-5.26714
-5.26895
-5.26992
-5.26939
-5.26743
-5.26511
-5.26372
-5.26338
-0.279645
-0.234799
-0.232655
-0.230218
-0.227489
-0.224731
-0.222232
-0.220219
-0.218857
-0.218131
-0.217981
-0.218636
-0.219778
-0.221174
-0.222621
-0.223941
-0.224965
-0.225657
-0.225998
-0.226067
-0.226655
-0.226749
-0.224731
-0.223817
-0.222663
-0.221355
-0.220046
-0.218955
-0.2183
-0.218467
-0.21918
-0.220428
-0.221995
-0.223375
-0.223913
-0.223102
-0.221107
-0.21897
-0.217788
-0.217542
-0.27819
-0.235633
-0.233418
-0.230911
-0.228089
-0.225219
-0.222675
-0.220568
-0.219162
-0.218307
-0.217956
-0.218585
-0.219661
-0.221019
-0.222396
-0.223611
-0.224514
-0.225052
-0.225261
-0.225229
-0.225966
-0.225941
-0.224092
-0.223343
-0.222336
-0.221149
-0.219937
-0.218919
-0.218327
-0.218696
-0.219526
-0.22075
-0.222188
-0.223287
-0.223393
-0.222095
-0.219729
-0.21747
-0.216376
-0.216227
-0.277791
-0.238066
-0.235741
-0.233071
-0.230055
-0.227054
-0.224358
-0.222167
-0.220641
-0.219624
-0.219035
-0.219605
-0.220623
-0.221884
-0.223149
-0.224185
-0.22486
-0.225132
-0.225095
-0.224879
-0.22586
-0.225635
-0.224116
-0.223659
-0.222936
-0.221981
-0.220951
-0.220075
-0.219593
-0.220216
-0.221242
-0.22241
-0.223622
-0.22426
-0.223686
-0.221643
-0.218724
-0.216282
-0.215308
-0.215274
-0.278699
-0.242373
-0.23982
-0.236836
-0.23351
-0.230268
-0.227328
-0.224992
-0.22334
-0.22204
-0.221236
-0.221725
-0.222666
-0.223802
-0.224864
-0.22561
-0.225898
-0.225741
-0.225293
-0.224792
-0.226107
-0.225616
-0.224635
-0.224675
-0.224436
-0.223897
-0.223195
-0.222568
-0.222274
-0.223228
-0.224581
-0.22564
-0.22648
-0.226408
-0.224821
-0.221698
-0.21799
-0.215282
-0.214453
-0.214535
-0.281701
-0.249326
-0.246311
-0.242752
-0.23892
-0.235179
-0.231909
-0.229299
-0.227523
-0.225879
-0.224906
-0.225372
-0.226234
-0.227208
-0.227962
-0.228237
-0.227919
-0.2271
-0.226046
-0.225133
-0.226913
-0.226085
-0.225897
-0.226719
-0.227274
-0.227442
-0.227307
-0.227107
-0.227122
-0.228519
-0.230411
-0.231272
-0.231518
-0.230355
-0.227257
-0.222558
-0.217716
-0.214622
-0.213982
-0.214185
-0.287795
-0.259868
-0.25596
-0.251388
-0.246583
-0.242021
-0.238113
-0.235107
-0.233186
-0.231293
-0.230379
-0.230976
-0.231857
-0.232662
-0.232978
-0.232528
-0.231309
-0.229564
-0.227727
-0.226311
-0.228863
-0.227443
-0.228334
-0.230274
-0.232058
-0.233389
-0.234215
-0.234736
-0.235269
-0.237256
-0.240083
-0.240632
-0.239952
-0.237112
-0.231716
-0.224648
-0.21813
-0.21448
-0.214128
-0.214486
-0.297866
-0.274802
-0.269293
-0.262911
-0.256394
-0.250399
-0.245308
-0.241575
-0.239484
-0.237796
-0.23753
-0.238629
-0.239789
-0.240581
-0.240372
-0.238918
-0.236485
-0.233637
-0.231013
-0.229197
-0.233243
-0.23042
-0.232562
-0.235871
-0.2394
-0.242548
-0.244947
-0.246671
-0.248132
-0.251051
-0.255508
-0.255717
-0.253698
-0.248323
-0.239397
-0.228681
-0.219634
-0.21519
-0.215321
-0.2159
-0.311996
-0.294169
-0.286111
-0.276737
-0.267506
-0.259119
-0.251812
-0.246407
-0.243838
-0.243461
-0.244969
-0.24714
-0.248971
-0.250401
-0.249937
-0.24742
-0.243686
-0.23992
-0.236976
-0.235696
-0.241614
-0.236392
-0.23921
-0.243704
-0.249342
-0.255071
-0.259885
-0.263512
-0.266747
-0.271286
-0.278808
-0.279106
-0.275536
-0.266624
-0.25241
-0.235954
-0.223094
-0.217524
-0.218426
-0.219257
-0.328978
-0.317114
-0.305678
-0.291855
-0.279011
-0.26713
-0.255339
-0.245681
-0.241251
-0.244114
-0.249246
-0.252446
-0.254515
-0.258485
-0.259266
-0.256737
-0.252399
-0.248672
-0.24661
-0.248277
-0.254979
-0.246638
-0.248134
-0.252676
-0.26014
-0.268999
-0.277254
-0.283408
-0.289876
-0.296967
-0.310025
-0.31201
-0.307915
-0.295366
-0.274308
-0.248255
-0.229791
-0.222712
-0.224871
-0.225825
-0.347642
-0.343855
-0.328391
-0.307583
-0.292002
-0.275217
-0.253792
-0.233801
-0.224477
-0.233681
-0.244344
-0.246293
-0.243693
-0.253908
-0.26042
-0.262934
-0.260394
-0.258408
-0.258331
-0.265387
-0.271093
-0.25829
-0.256251
-0.258899
-0.267002
-0.279084
-0.292579
-0.299657
-0.31019
-0.319284
-0.337188
-0.343409
-0.343627
-0.333089
-0.30993
-0.265664
-0.23982
-0.231283
-0.236155
-0.237041
-0.369859
-0.378196
-0.353743
-0.318203
-0.310048
-0.280145
-0.238806
-0.204786
-0.192021
-0.202807
-0.2112
-0.218222
-0.206041
-0.219882
-0.237113
-0.261086
-0.265069
-0.265433
-0.264267
-0.274003
-0.273372
-0.259949
-0.255121
-0.256304
-0.265612
-0.282221
-0.307917
-0.29927
-0.307341
-0.310532
-0.307658
-0.316587
-0.333486
-0.35445
-0.362863
-0.281149
-0.249005
-0.241875
-0.253437
-0.254219
-0.398034
-0.417217
-0.354567
-0.290794
-0.33443
-0.250097
-0.141603
-0.161402
-0.177624
-0.113006
-0.0682339