# vtk DataFile Version 4.0
Nusif Fluid VTK output
ASCII
DATASET STRUCTURED_POINTS
DIMENSIONS 40 30 1
ORIGIN 0 0 0 
SPACING 0.2 0.2 1
POINT_DATA 1200 

VECTORS velocity double
-0.0055061 0.00509381  0
-0.016341 0.0049653  0
-0.0267387 0.00470637  0
-0.0364905 0.00432086  0
-0.0453545 0.00381954  0
-0.0531176 0.00322067  0
-0.0596088 0.0025479  0
-0.0647059 0.00182681  0
-0.0683368 0.00108134  0
-0.0704728 0.000331626  0
-0.0711206 -0.000407498  0
-0.0703112 -0.00112615  0
-0.0680915 -0.00181848  0
-0.0645182 -0.0024806  0
-0.0596559 -0.00310819  0
-0.0535813 -0.00369373  0
-0.046391 -0.0042245  0
-0.0382131 -0.00468213  0
-0.0292158 -0.0050446  0
-0.0196102 -0.00529094  0
-0.00964228 -0.00540744  0
0.000426971 -0.00539268  0
0.0103484 -0.00525991  0
0.0199086 -0.00503173  0
0.0289422 -0.00473333  0
0.0373299 -0.00438582  0
0.0449872 -0.00400285  0
0.0518486 -0.00358967  0
0.0578505 -0.00314314  0
0.0629148 -0.00265148  0
0.066929 -0.00209268  0
0.0697247 -0.00143236  0
0.0710518 -0.000623533  0
0.0705594 0.000387694  0
0.0677984 0.00164559  0
0.0622722 0.00315345  0
0.0535574 0.0048346  0
0.0414905 0.00650589  0
0.0263668 0.0078916  0
0.00905608 0.00869304  0
-0.00564128 0.0154672  0
-0.0167466 0.0150789  0
-0.0274087 0.0142952  0
-0.0374059 0.0131251  0
-0.0464827 0.011601  0
-0.0544145 0.00977963  0
-0.0610239 0.0077353  0
-0.0661894 0.00554771  0
-0.069844 0.00329108  0
-0.0719681 0.00102665  0
-0.0725779 -0.00120124  0
-0.0717127 -0.00336408  0
-0.0694248 -0.00544608  0
-0.0657724 -0.00743771  0
-0.0608179 -0.00932781  0
-0.0546324 -0.011095  0
-0.0473064 -0.0127012  0
-0.038963 -0.0140894  0
-0.0297707 -0.0151903  0
-0.0199483 -0.0159372  0
-0.00975589 -0.016286  0
0.000527725 -0.0162319  0
0.0106377 -0.0158173  0
0.0203524 -0.0151147  0
0.0295065 -0.0142035  0
0.037987 -0.0131491  0
0.0457177 -0.0119927  0
0.0526404 -0.0107486  0
0.0586956 -0.00940566  0
0.063805 -0.00792619  0
0.0678519 -0.00624206  0
0.0706595 -0.00424843  0
0.0719671 -0.00180362  0
0.0714138 0.00125275  0
0.0685461 0.00504924  0
0.0628736 0.0095891  0
0.0539923 0.0146362  0
0.0417651 0.0196399  0
0.0265092 0.0237789  0
0.00909875 0.0261688  0
-0.00592393 0.0263126  0
-0.0175936 0.0256583  0
-0.0288058 0.0243297  0
-0.0393115 0.0223331  0
-0.0488247 0.0197224  0
-0.0570963 0.0166007  0
-0.0639371 0.0131034  0
-0.0692278 0.00937414  0
-0.0729151 0.00554448  0
-0.0749995 0.00171925  0
-0.0755181 -0.00202849  0
-0.0745281 -0.00565554  0
-0.0720929 -0.00914167  0
-0.0682738 -0.0124779  0
-0.0631287 -0.0156519  0
-0.0567181 -0.018632  0
-0.0491194 -0.0213542  0
-0.0404465 -0.0237182  0
-0.0308684 -0.0255976  0
-0.0206183 -0.0268682  0
-0.00998458 -0.027447  0
0.000719448 -0.0273244  0
0.0111986 -0.0265797  0
0.021216 -0.0253501  0
0.030608 -0.0237799  0
0.0392742 -0.0219848  0
0.0471548 -0.0200335  0
0.054205 -0.0179456  0
0.0603721 -0.0156956  0
0.0655764 -0.013214  0
0.0696918 -0.0103803  0
0.0725248 -0.00701412  0
0.0737939 -0.00287755  0
0.0731193 0.00229209  0
0.0700399 0.00869482  0
0.0640796 0.0163143  0
0.054872 0.0247382  0
0.0423299 0.0330457  0
0.0268093 0.039888  0
0.00919055 0.0438273  0
-0.00638417 0.0379087  0
-0.0189715 0.0369795  0
-0.0310743 0.0350681  0
-0.0423932 0.0321637  0
-0.052589 0.028345  0
-0.0613729 0.0237776  0
-0.0685412 0.0186791  0
-0.0739849 0.0132757  0
-0.0776789 0.00776682  0
-0.0796601 0.00230437  0
-0.0800007 -0.00301293  0
-0.0787863 -0.00813456  0
-0.0760981 -0.0130456  0
-0.0720029 -0.0177483  0
-0.0665518 -0.022238  0
-0.0597905 -0.0264785  0
-0.0517782 -0.0303795  0
-0.0426159 -0.033789  0
-0.0324736 -0.0365082  0
-0.0216051 -0.0383373  0
-0.0103375 -0.0391405  0
0.000967907 -0.0389016  0
0.0119751 -0.0377502  0
0.0224287 -0.0359117  0
0.0321705 -0.033613  0
0.0411189 -0.0310272  0
0.049236 -0.0282493  0
0.0564929 -0.025297  0
0.0628431 -0.0221212  0
0.0682007 -0.0186098  0
0.072423 -0.0145811  0
0.0752909 -0.00977267  0
0.0764931 -0.00384824  0
0.0756239 0.00354911  0
0.072215 0.0126689  0
0.0658157 0.023443  0
0.0561201 0.0352562  0
0.0431171 0.0468164  0
0.0272198 0.0562789  0
0.00931452 0.0617041  0
-0.00709134 0.050681  0
-0.0210839 0.0494591  0
-0.0345328 0.0468903  0
-0.0470488 0.0429263  0
-0.0582068 0.0376857  0
-0.0676672 0.0314303  0
-0.075219 0.0244951  0
-0.0807835 0.0172157  0
-0.0843892 0.00987398  0
-0.086134 0.00266978  0
-0.0861452 -0.00428035  0
-0.0845497 -0.0109314  0
-0.0814528 -0.0172887  0
-0.0769282 -0.0233802  0
-0.0710198 -0.029221  0
-0.0637563 -0.0347762  0
-0.055178 -0.0399284  0
-0.0453736 -0.044463  0
-0.0345161 -0.0480903  0
-0.022883 -0.0505132  0
-0.0108438 -0.0515277  0
0.00119012 -0.0511099  0
0.0128425 -0.0494577  0
0.0238435 -0.0469149  0
0.0340454 -0.0438094  0
0.0433887 -0.0403783  0
0.0518561 -0.0367381  0
0.0594295 -0.0328936  0
0.0660584 -0.0287584  0
0.0716403 -0.0241665  0
0.076005 -0.0188652  0
0.0788992 -0.0125039  0
0.0799755 -0.00464819  0
0.0788016 0.00514  0
0.0749094 0.0171275  0
0.0678942 0.0311478  0
0.0575432 0.0463472  0
0.0439561 0.0610649  0
0.0276227 0.0730103  0
0.00942836 0.0798216  0
-0.00819398 0.0652732  0
-0.0243603 0.0637109  0
-0.0398369 0.0603202  0
-0.0540688 0.0550001  0
-0.0665059 0.0479622  0
-0.0767655 0.0396282  0
-0.0846639 0.0305013  0
-0.0901985 0.0210616  0
-0.093499 0.0116867  0
-0.0947612 0.00261578  0
-0.0941906 -0.00603464  0
-0.0919663 -0.0142462  0
-0.0882216 -0.0220654  0
-0.0830376 -0.0295624  0
-0.0764524 -0.0367829  0
-0.0684826 -0.0436983  0
-0.0591584 -0.0501597  0
-0.0485659 -0.0558795  0
-0.0368878 -0.0604605  0
-0.0244234 -0.0634916  0
-0.0115709 -0.0646919  0
0.00122957 -0.0640313  0
0.0135823 -0.0617925  0
0.0252176 -0.0584673  0
0.0360044 -0.0544965  0
0.0458992 -0.0501799  0
0.0548895 -0.0456444  0
0.0629459 -0.0408669  0
0.0699921 -0.0357096  0
0.0758875 -0.0299415  0
0.0804176 -0.0232334  0
0.083286 -0.015146  0
0.0841105 -0.00515399  0
0.082443 0.0072408  0
0.0778388 0.0222771  0
0.0699781 0.0396286  0
0.0587919 0.0581586  0
0.0445367 0.075851  0
0.0278025 0.0900471  0
0.00945477 0.0980824  0
-0.0099933 0.0827784  0
-0.0296602 0.0807381  0
-0.0482635 0.0761351  0
-0.0649333 0.0688486  0
-0.078969 0.0593476  0
-0.0900278 0.0483213  0
-0.0980528 0.036491  0
-0.103203 0.0245153  0
-0.105785 0.0128729  0
-0.106146 0.00180997  0
-0.104594 -0.00859515  0
-0.101364 -0.0183841  0
-0.0966123 -0.0276693  0
-0.0904226 -0.0365773  0
-0.0828319 -0.0451893  0
-0.0738611 -0.0534781  0
-0.0635555 -0.0612553  0
-0.0520261 -0.0681516  0
-0.0394781 -0.0736602  0
-0.0262199 -0.0772603  0
-0.0126374 -0.0786038  0
0.000859111 -0.077662  0
0.013904 -0.0748048  0
0.0262566 -0.0706883  0
0.0378051 -0.0658562  0
0.0484979 -0.0606529  0
0.0582886 -0.0551972  0
0.0670938 -0.0494202  0
0.0747675 -0.04312  0
0.0810932 -0.0359955  0
0.0857872 -0.0276462  0
0.0885027 -0.0175591  0
0.0888348 -0.00513873  0
0.0863491 0.0101382  0
0.0806715 0.0284216  0
0.0716322 0.0491449  0
0.0593852 0.0708366  0
0.0444119 0.091163  0
0.0274371 0.107206  0
0.00927614 0.116194  0
-0.0130587 0.10516  0
-0.0385868 0.102266  0
-0.0621357 0.0955285  0
-0.0822359 0.0849933  0
-0.0980807 0.0718504  0
-0.109646 0.0572085  0
-0.117233 0.0419814  0
-0.121309 0.0270145  0
-0.12247 0.0128796  0
-0.121288 -0.000254559  0
-0.118183 -0.0124262  0
-0.113422 -0.0237835  0
-0.107157 -0.0345262  0
-0.099465 -0.0448419  0
-0.0903874 -0.0548331  0
-0.0799816 -0.0644511  0
-0.0683598 -0.0734499  0
-0.0557061 -0.0813805  0
-0.0422683 -0.0876572  0
-0.0283337 -0.0916962  0
-0.0141958 -0.0931284  0
-0.000138633 -0.091931  0
0.0135793 -0.0885385  0
0.0267875 -0.0837554  0
0.0393898 -0.0781796  0
0.0512838 -0.0721558  0
0.0623225 -0.065763  0
0.0722975 -0.0588735  0
0.0809295 -0.0512108  0
0.0878664 -0.0424052  0
0.0927067 -0.032008  0
0.0950394 -0.0194817  0
0.0944671 -0.0042112  0
0.0906335 0.0142954  0
0.0833129 0.0360288  0
0.0725752 0.0600818  0
0.0589131 0.0845764  0
0.0431256 0.106952  0
0.0261524 0.124133  0
0.00874713 0.133602  0
-0.0183479 0.135909  0
-0.0537898 0.131217  0
-0.0852096 0.120321  0
-0.110053 0.103919  0
-0.127592 0.0850822  0
-0.13879 0.0655114  0
-0.144799 0.0460453  0
-0.146625 0.0276216  0
-0.145303 0.0108806  0
-0.141704 -0.00426899  0
-0.13632 -0.0181338  0
-0.129373 -0.0310181  0
-0.120955 -0.0432089  0
-0.111103 -0.0549378  0
-0.0998716 -0.066281  0
-0.0874055 -0.07711  0
-0.0739633 -0.0870898  0
-0.0598766 -0.0957156  0
-0.0454564 -0.102415  0
-0.0309164 -0.106648  0
-0.0163364 -0.108129  0
-0.0017584 -0.1068  0
0.012735 -0.103115  0
0.0270933 -0.0979794  0
0.0412449 -0.0919434  0
0.0549797 -0.0852548  0
0.0679588 -0.0779155  0
0.0797696 -0.0697403  0
0.0899169 -0.0603562  0
0.0978069 -0.0493187  0
0.102815 -0.0361741  0
0.104431 -0.0204945  0
0.102335 -0.00176005  0
0.0963794 0.0204054  0
0.0865876 0.0458039  0
0.0733369 0.0730687  0
0.0576097 0.0997532  0
0.0406118 0.123336  0
0.0237074 0.140402  0
0.00774194 0.149478  0
-0.0271607 0.180773  0
-0.0786343 0.172016  0
-0.121993 0.153084  0
-0.153255 0.126043  0
-0.172018 0.0980401  0
-0.181126 0.0716367  0
-0.183592 0.0471707  0
-0.181529 0.0250345  0
-0.17645 0.00584116  0
-0.169461 -0.0110452  0
-0.161011 -0.0264194  0
-0.151148 -0.0407706  0
-0.139826 -0.0544264  0
-0.127002 -0.0676251  0
-0.112739 -0.0803183  0
-0.0973268 -0.09218  0
-0.0812804 -0.102738  0
-0.0651804 -0.111483  0
-0.0494209 -0.118055  0
-0.0340788 -0.122117  0
-0.0188562 -0.12369  0
-0.00344974 -0.122451  0
0.0122101 -0.118845  0
0.0282618 -0.113888  0
0.0447401 -0.107893  0
0.0612849 -0.100813  0
0.0772473 -0.0925271  0
0.0919319 -0.0828521  0
0.104559 -0.0712461  0
0.114131 -0.0571179  0
0.119561 -0.0400376  0
0.120136 -0.0200474  0
0.115754 0.00304727  0
0.106716 0.0293697  0
0.093413 0.0587132  0
0.0764263 0.0891768  0
0.0574502 0.11713  0
0.0379849 0.141204  0
0.0203197 0.155886  0
0.00622559 0.162837  0
-0.0405476 0.247851  0
-0.114517 0.229146  0
-0.172815 0.1964  0
-0.212744 0.152707  0
-0.233381 0.109562  0
-0.238012 0.0726365  0
-0.23421 0.0436163  0
-0.227196 0.0182927  0
-0.217841 -0.00307214  0
-0.20686 -0.0213239  0
-0.194616 -0.0380583  0
-0.18098 -0.0538532  0
-0.165841 -0.0690298  0
-0.149048 -0.0838622  0
-0.130604 -0.0980141  0
-0.110996 -0.110728  0
-0.0911326 -0.121324  0
-0.071997 -0.129356  0
-0.0541067 -0.135055  0
-0.0373875 -0.138401  0
-0.0209153 -0.140324  0
-0.00394694 -0.139415  0
0.013513 -0.136224  0
0.0319483 -0.132219  0
0.0518227 -0.127138  0
0.0726095 -0.120123  0
0.0930785 -0.110872  0
0.112194 -0.0995305  0
0.128941 -0.0851639  0
0.141737 -0.0667906  0
0.148538 -0.0438151  0
0.148186 -0.0177132  0
0.1409 0.0111638  0
0.127779 0.0421963  0
0.109906 0.0758475  0
0.0874999 0.110222  0
0.0635869 0.137761  0
0.0385835 0.16383  0
0.0167823 0.171516  0
0.00420769 0.172665  0
-0.056311 0.344093  0
-0.149959 0.299303  0
-0.21648 0.249858  0
-0.271247 0.19274  0
-0.302044 0.119755  0
-0.299405 0.0632239  0
-0.28788 0.0364878  0
-0.280297 0.00961114  0
-0.269629 -0.0156303  0
-0.255016 -0.0355766  0
-0.238133 -0.0541518  0
-0.219311 -0.0714353  0
-0.199035 -0.0880825  0
-0.176999 -0.104857  0
-0.152888 -0.120795  0
-0.127438 -0.134223  0
-0.102132 -0.144216  0
-0.0785819 -0.150368  0
-0.0575067 -0.154226  0
-0.0389502 -0.155723  0
-0.020873 -0.158768  0
-0.00184103 -0.158187  0
0.0175581 -0.155527  0
0.0385761 -0.153586  0
0.0629279 -0.151215  0
0.089964 -0.145087  0
0.11706 -0.13469  0
0.142728 -0.121713  0
0.166077 -0.104295  0
0.184993 -0.0805888  0
0.195566 -0.0486061  0
0.195777 -0.0139949  0
0.185647 0.0236496  0
0.166774 0.0604944  0
0.142865 0.0981229  0
0.113529 0.138481  0
0.0856227 0.160115  0
0.0493867 0.201511  0
0.013563 0.190258  0
0.00129401 0.177566  0
-0.0433214 0.443421  0
-0.115478 0.365175  0
-0.177956 0.312387  0
-0.277515 0.283937  0
-0.34078 0.121717  0
-0.322602 0.0392366  0
-0.317091 0.0422312  0
-0.330562 0.00854713  0
-0.326513 -0.0304956  0
-0.30911 -0.0539398  0
-0.285984 -0.0770118  0
-0.259208 -0.0953866  0
-0.232086 -0.112744  0
-0.203604 -0.131928  0
-0.172459 -0.150195  0
-0.139865 -0.164081  0
-0.108037 -0.172706  0
-0.0792038 -0.175474  0
-0.0542283 -0.176382  0
-0.0349058 -0.172656  0
-0.0168722 -0.179155  0
0.00287773 -0.177792  0
0.0223874 -0.176041  0
0.0443398 -0.177253  0
0.0730958 -0.181868  0
0.108553 -0.178141  0
0.144507 -0.165899  0
0.178804 -0.151682  0
0.211563 -0.131647  0
0.240928 -0.102731  0
0.25917 -0.0564904  0
0.263666 -0.0120262  0
0.252419 0.0418512  0
0.221364 0.0910166  0
0.181479 0.130193  0
0.143972 0.172053  0
0.132673 0.164548  0
0.0846986 0.28009  0
0.0127079 0.218596  0
-0.00247715 0.176084  0
0.0030447 0.243371  0
-0.0451221 0.197005  0
-0.155877 0.173016  0
-0.199581 0.234308  0
-0.183742 0.118766  0
-0.208318 0.0479813  0
-0.295768 0.114824  0
-0.367102 0.0198526  0
-0.366709 -0.0474515  0
-0.347775 -0.0745298  0
-0.317476 -0.111056  0
-0.279341 -0.127463  0
-0.245325 -0.143017  0
-0.211411 -0.165263  0
-0.17443 -0.186196  0
-0.136589 -0.199724  0
-0.100419 -0.20627  0
-0.0674932 -0.204876  0
-0.0374534 -0.203202  0
-0.0212764 -0.18254  0
-0.00877243 -0.201012  0
0.00812643 -0.193787  0
0.0239651 -0.196598  0
0.0421076 -0.197996  0
0.0714974 -0.220478  0
0.116057 -0.220758  0
0.160631 -0.20502  0
0.20292 -0.190356  0
0.245401 -0.169421  0
0.288791 -0.13892  0
0.316449 -0.0674075  0
0.329167 -0.0195282  0
0.32367 0.0648945  0
0.269768 0.151732  0
0.162308 0.215924  0
0.0818796 0.203658  0
0.0665761 0.158947  0
0.065523 0.33412  0
0.0616104 0.285189  0
0.0288489 0.0868032  0
0 0  0
0 0  0
0 0  0
-0.0918711 0.0593828  0
-0.160638 0.0593828  0
-0.237785 0.0362783  0
-0.323337 0.102854  0
-0.308637 0.0280085  0
-0.317046 -0.0481954  0
-0.326593 -0.0837754  0
-0.299469 -0.16014  0
-0.251487 -0.165705  0
-0.216306 -0.175178  0
-0.183741 -0.200787  0
-0.148919 -0.223681  0
-0.114476 -0.235728  0
-0.0818343 -0.240282  0
-0.049337 -0.237491  0
-0.00909701 -0.242068  0
0.00110723 -0.170954  0
-0.00158548 -0.223008  0
0.0119945 -0.20287  0
0.0256455 -0.217606  0
0.032277 -0.202364  0
0.0541679 -0.268296  0
0.105231 -0.269769  0
0.151403 -0.247961  0
0.19356 -0.233067  0
0.236682 -0.213518  0
0.286819 -0.189555  0
0.313233 -0.0720472  0
0.329176 -0.0447523  0
0.321114 0.102777  0
0.295551 0.192716  0
0.227938 0.237409  0
0.14293 0.108954  0
0.00847027 0.0800001  0
-0.0215369 0.16706  0
0.0327615 0.16706  0
0 0  0
0 0  0
0 0  0
0 0  0
0 0  0
0 0  0
0 0  0
-0.154319 0.0140043  0
-0.274739 0.0140043  0
-0.261723 -0.0198934  0
-0.2382 -0.135671  0
-0.193795 -0.188706  0
-0.180468 -0.199052  0
-0.155209 -0.202874  0
-0.132467 -0.229002  0
-0.111647 -0.251709  0
-0.0917706 -0.262621  0
-0.0726031 -0.2658  0
-0.0547361 -0.262938  0
-0.0461696 -0.266028  0
0.00887762 -0.211763  0
0.0225088 -0.116886  0
0.00932877 -0.102843  0
0.0218827 -0.11422  0
0.044842 -0.246426  0
0.0834833 -0.294692  0
0.0983506 -0.309907  0
0.128588 -0.284834  0
0.157093 -0.267459  0
0.179917 -0.245673  0
0.189783 -0.218005  0
0.204173 -0.085002  0
0.218385 -0.0625526  0
0.22478 0.0328937  0
0.263363 0.0963579  0
0.147776 0.0963579  0
0 0  0
0 0  0
0 0  0
0 0  0
0 0  0
0 0  0
0 0  0
0 0  0
0 0  0
0 0  0
0 0  0
0 0  0
0 0  0
0 0  0
-0.0968973 -0.0943529  0
-0.181959 -0.0943529  0
-0.167418 -0.106189  0
-0.141493 -0.107403  0
-0.10901 -0.119906  0
-0.0953093 -0.130859  0
-0.0850796 -0.136244  0
-0.0730947 -0.13755  0
-0.0592725 -0.135752  0
-0.0489078 -0.133014  0
-0.0230848 -0.133014  0
0 0  0
0 0  0
0 0  0
0.0417416 -0.147346  0
0.0985248 -0.147346  0
0.101107 -0.162387  0
0.106498 -0.150102  0
0.134672 -0.140298  0
0.148711 -0.12768  0
0.11171 -0.109092  0
0.126357 -0.0496066  0
0.200054 -0.0312763  0
0.109192 -0.0312763  0
0 0  0
0 0  0
0 0  0
0 0  0
0 0  0
0 0  0
0 0  0
0 0  0
0 0  0
0 0  0
0 0  0
0 0  0
0 0  0
0 0  0
0 0  0
0 0  0
0 0  0
0 0  0
0 0  0
0 0  0
0 0  0
0 0  0
0 0  0
0 0  0
0 0  0
0 0  0
0 0  0
0 0  0
0 0  0
0 0  0
0 0  0
0 0  0
0 0  0
0 0  0
0 0  0
0 0  0
0 0  0
0 0  0
0 0  0
0 0  0
0 0  0
0 0  0
0 0  0
0 0  0
0 0  0
0 0  0
0 0  0
0 0  0
0 0  0
0 0  0
0 0  0
0 0  0
0 0  0
0 0  0
0 0  0
0 0  0
0 0  0
0 0  0
0 0  0
0 0  0
0 0  0
0 0  0
0 0  0
0 0  0
0 0  0
0 0  0
0 0  0
0 0  0
0 0  0
0 0  0
0 0  0
0 0  0
0 0  0
0 0  0
0 0  0
0 0  0
0 0  0
0 0  0
0 0  0
0 0  0
0 0  0
0 0  0
0 0  0
0 0  0
0 0  0
0 0  0
0 0  0
0 0  0
0 0  0
0 0  0
0 0  0
0 0  0
0 0  0
0 0  0
0 0  0
0 0  0
0 0  0
0 0  0
0 0  0
0 0  0
0 0  0
0 0  0
0 0  0
0 0  0
0 0  0
0 0  0
0 0  0
0 0  0
0 0  0
0 0  0
0 0  0
0 0  0
0 0  0
0 0  0
0 0  0
0 0  0
0 0  0
0 0  0
0 0  0
0 0  0
0 0  0
0 0  0
0 0  0
0 0  0
0 0  0
0 0  0
0 0  0
0 0  0
0 0  0
0 0  0
0 0  0
0 0  0
0 0  0
0 0  0
0 0  0
0 0  0
0 0  0
0 0  0
0 0  0
0 0  0
0 0  0
0 0  0
0 0  0
0 0  0
0 0  0
0 0  0
0 0  0
0 0  0
0 0  0
0 0  0
0 0  0
0 0  0
0 0  0
0 0  0
0 0  0
0 0  0
0 0  0
0 0  0
0 0  0
0 0  0
0 0  0
0 0  0
0 0  0
0 0  0
0 0  0
0 0  0
0 0  0
0 0  0
0 0  0
0 0  0
0 0  0
0 0  0
0 0  0
0 0  0
0 0  0
0 0  0
0 0  0
0 0  0
0 0  0
0 0  0
0 0  0
0 0  0
0 0  0
0 0  0
0 0  0
0 0  0
0 0  0
0 0  0
0 0  0
0 0  0
0 0  0
0 0  0
0 0  0
0 0  0
0 0  0
0 0  0
0 0  0
0 0  0
0 0  0
0 0  0
0 0  0
0 0  0
0 0  0
0 0  0
0 0  0
0 0  0
0 0  0
0 0  0
0 0  0
0 0  0
0 0  0
0 0  0
0 0  0
0 0  0
0 0  0
0 0  0
0 0  0
0 0  0
0 0  0
0 0  0
0 0  0
0 0  0
0 0  0
0 0  0
0 0  0
0 0  0
0 0  0
0 0  0
0 0  0
0 0  0
0 0  0
0 0  0
0 0  0
0 0  0
0 0  0
0 0  0
0 0  0
0 0  0
0 0  0
0 0  0
0 0  0
0 0  0
0 0  0
0 0  0
0 0  0
0 0  0
0 0  0
0 0  0
0 0  0
0 0  0
0 0  0
0 0  0
0 0  0
0 0  0
0 0  0
0 0  0
0 0  0
0 0  0
0 0  0
0 0  0
0 0  0
0 0  0
0 0  0
0 0  0
0 0  0
0 0  0
0 0  0
0 0  0
0 0  0
0 0  0
0 0  0
0 0  0
0 0  0
0 0  0
0 0  0
0 0  0
0 0  0
0 0  0
0 0  0
0 0  0
0 0  0
0 0  0
0 0  0
0 0  0
0 0  0
0 0  0
0 0  0
0 0  0
0 0  0
0 0  0
0 0  0
0 0  0
0 0  0
0 0  0
0 0  0
0 0  0
0 0  0
0 0  0
0 0  0
0 0  0
0 0  0
0 0  0
0 0  0
0 0  0
0 0  0
0 0  0
0 0  0
0 0  0
0 0  0
0 0  0
0 0  0
0 0  0
0 0  0
0 0  0
0 0  0
0 0  0
0 0  0
0 0  0
0 0  0
0 0  0
0 0  0
0 0  0
0 0  0
0 0  0
0 0  0
0 0  0
0 0  0
0 0  0
0 0  0
0 0  0
0 0  0
0 0  0
0 0  0
0 0  0
0 0  0
0 0  0
0 0  0
0 0  0
0 0  0
0 0  0
0 0  0
0 0  0
0 0  0
0 0  0
0 0  0
0 0  0
0 0  0
0 0  0
0 0  0
0 0  0
0 0  0
0 0  0
0 0  0
0 0  0
0 0  0
0 0  0
0 0  0
0 0  0
0 0  0
0 0  0
0 0  0
0 0  0
0 0  0
0 0  0
0 0  0
0 0  0
0 0  0
0 0  0
0 0  0
0 0  0
0 0  0
0 0  0
0 0  0
0 0  0
0 0  0
0 0  0
0 0  0
0 0  0
0 0  0
0 0  0
0 0  0
0 0  0
0 0  0
0 0  0
0 0  0
0 0  0
0 0  0
0 0  0
0 0  0
0 0  0
0 0  0
0 0  0
0 0  0
0 0  0
0 0  0
0 0  0
0 0  0
0 0  0
0 0  0
0 0  0
0 0  0
0 0  0
0 0  0
0 0  0
0 0  0
0 0  0
0 0  0
0 0  0
0 0  0
0 0  0
0 0  0
0 0  0
0 0  0
0 0  0
0 0  0
0 0  0
0 0  0
0 0  0
0 0  0
0 0  0
0 0  0
0 0  0
0 0  0
0 0  0
0 0  0
0 0  0
0 0  0
0 0  0
0 0  0
0 0  0
0 0  0
0 0  0
0 0  0
0 0  0
0 0  0
0 0  0
0 0  0
0 0  0
0 0  0
0 0  0
0 0  0
0 0  0
0 0  0
0 0  0
0 0  0
0 0  0
0 0  0
0 0  0
0 0  0
0 0  0
0 0  0
0 0  0
0 0  0
0 0  0
0 0  0
0 0  0
0 0  0
0 0  0
0 0  0
0 0  0
0 0  0
0 0  0
0 0  0
0 0  0
0 0  0
0 0  0
0 0  0
0 0  0
0 0  0
0 0  0
0 0  0
0 0  0
0 0  0
0 0  0
0 0  0
0 0  0
0 0  0
0 0  0
0 0  0
0 0  0
0 0  0
0 0  0
0 0  0
0 0  0
0 0  0
0 0  0
0 0  0
0 0  0
0 0  0
0 0  0
0 0  0
0 0  0
0 0  0
0 0  0
0 0  0
0 0  0
0 0  0
0 0  0
0 0  0
0 0  0
0 0  0
0 0  0
0 0  0
0 0  0
0 0  0
0 0  0
0 0  0
0 0  0
0 0  0
0 0  0
0 0  0
0 0  0
0 0  0
0 0  0
0 0  0
0 0  0
0 0  0
0 0  0
0 0  0
0 0  0
0 0  0
0 0  0
0 0  0
0 0  0
0 0  0
0 0  0
0 0  0

SCALARS pressure double 1
LOOKUP_TABLE default
3.11107
3.11385
3.11871
3.12549
3.134
3.14395
3.15505
3.16694
3.17926
3.19167
3.20383
3.21543
3.22623
3.23601
3.24461
3.25192
3.25786
3.26241
3.26555
3.26732
3.26773
3.26683
3.26471
3.26135
3.25678
3.25105
3.2442
3.23633
3.22754
3.21797
3.20784
3.1974
3.18694
3.1768
3.16735
3.15895
3.15192
3.14651
3.14288
3.1411
2.90501
2.90789
2.91292
2.91996
2.92879
2.93911
2.9506
2.96289
2.97561
2.98838
3.00087
3.01275
3.02377
3.03371
3.04242
3.04978
3.05575
3.06029
3.06341
3.06515
3.06553
3.06462
3.06249
3.05912
3.05455
3.04881
3.04193
3.03399
3.02507
3.01534
3.00498
2.99426
2.98347
2.97298
2.96315
2.95438
2.947
2.9413
2.93746
2.93557
2.69208
2.69514
2.70052
2.70807
2.71754
2.7286
2.74089
2.75399
2.7675
2.78101
2.79413
2.80656
2.818
2.82825
2.83715
2.84462
2.8506
2.8551
2.85815
2.8598
2.86011
2.85915
2.85699
2.85362
2.84905
2.84328
2.83633
2.82823
2.81908
2.80899
2.79817
2.78688
2.77542
2.76419
2.75359
2.74404
2.73593
2.72961
2.72531
2.72318
2.47207
2.47539
2.4813
2.48965
2.50012
2.51235
2.52589
2.54025
2.55498
2.5696
2.58371
2.59695
2.60902
2.61972
2.6289
2.63648
2.64245
2.64685
2.64976
2.65125
2.65143
2.65038
2.64819
2.64483
2.64027
2.63448
2.62744
2.61914
2.60963
2.59902
2.58752
2.57539
2.563
2.55074
2.53904
2.52835
2.51913
2.51181
2.50673
2.50413
2.24462
2.24829
2.25497
2.26444
2.27634
2.29021
2.30551
2.32166
2.33809
2.35427
2.36973
2.38407
2.39698
2.40826
2.41776
2.42545
2.43135
2.43555
2.4382
2.43943
2.4394
2.43822
2.436
2.43268
2.4282
2.42245
2.41534
2.40681
2.39687
2.38573
2.37365
2.36084
2.34747
2.33381
2.32034
2.30765
2.29642
2.28731
2.28086
2.27758
2.00925
2.0134
2.02106
2.03202
2.04587
2.06199
2.07969
2.09824
2.11692
2.13514
2.15235
2.16811
2.18208
2.19406
2.20392
2.21166
2.21736
2.2212
2.2234
2.2242
2.22383
2.22248
2.22026
2.21707
2.21279
2.20721
2.20015
2.19145
2.18173
2.17093
2.15857
2.14441
2.1287
2.11211
2.09552
2.0798
2.06582
2.05439
2.04635
2.04227
1.7653
1.76998
1.77889
1.79183
1.80828
1.82743
1.84829
1.86996
1.89158
1.91242
1.93185
1.94936
1.96462
1.97739
1.98759
1.99526
2.00057
2.00377
2.00524
2.00537
2.0045
2.0029
2.00076
1.99789
1.99405
1.98889
1.9821
1.9754
1.96683
1.95519
1.94045
1.92318
1.90418
1.88436
1.86457
1.84562
1.82844
1.81411
1.80374
1.79822
1.51183
1.51708
1.52748
1.54296
1.56293
1.5861
1.61116
1.6369
1.66227
1.68639
1.70854
1.72818
1.74493
1.75858
1.76907
1.77648
1.78107
1.78327
1.7836
1.78266
1.78106
1.77917
1.77722
1.77495
1.77193
1.76766
1.76555
1.75898
1.74878
1.73498
1.71799
1.69834
1.67657
1.6532
1.62904
1.6053
1.58333
1.56457
1.55057
1.54322
1.24757
1.25323
1.26523
1.284
1.30883
1.33756
1.36815
1.39912
1.4292
1.45736
1.48281
1.50499
1.52349
1.53808
1.54874
1.55561
1.55909
1.55972
1.55827
1.55574
1.55302
1.55073
1.54915
1.54793
1.54645
1.54938
1.54453
1.53852
1.52765
1.51315
1.49473
1.47222
1.44597
1.41726
1.3876
1.35829
1.3305
1.30566
1.28635
1.27587
0.97057
0.975964
0.989356
1.01238
1.04467
1.08118
1.11903
1.15674
1.19269
1.22569
1.25513
1.28035
1.30084
1.31641
1.32706
1.33309
1.33488
1.33317
1.32906
1.32401
1.31958
1.31672
1.31578
1.31639
1.32314
1.32194
1.32256
1.3159
1.30661
1.29117
1.27017
1.24381
1.21273
1.178
1.14128
1.10471
1.06928
1.03593
1.00803
0.992994
0.677485
0.680923
0.694641
0.723235
0.768714
0.816549
0.863539
0.909969
0.953129
0.991801
1.02603
1.05485
1.07759
1.0941
1.10461
1.10938
1.10887
1.10384
1.09565
1.08659
1.0795
1.07579
1.07593
1.08352
1.08879
1.09585
1.09653
1.09458
1.08448
1.06901
1.04588
1.01511
0.977357
0.934582
0.888985
0.844675
0.800816
0.755649
0.711824
0.690118
0.362597
0.361305
0.372579
0.405986
0.480787
0.544526
0.601269
0.659594
0.711134
0.755935
0.796078
0.829287
0.854451
0.871819
0.881897
0.885108
0.881751
0.872233
0.85784
0.842009
0.830824
0.825942
0.829604
0.839103
0.852397
0.86505
0.871746
0.871296
0.864115
0.84751
0.821905
0.786276
0.740746
0.687317
0.628415
0.577023
0.527199
0.467576
0.388246
0.360637
0.0216165
0.0141195
0.0163672
0.032107
0.192719
0.270999
0.330103
0.40826
0.468417
0.517568
0.566036
0.604926
0.632421
0.650112
0.659435
0.661025
0.654736
0.639784
0.615987
0.587494
0.570439
0.565001
0.569867
0.583954
0.611444
0.633188
0.646784
0.649616
0.643593
0.62774
0.599399
0.558156
0.502775
0.436662
0.351834
0.299536
0.255282
0.187322
0.0065363
-0.00146468
0
0
0
0
-0.00746058
0.0119909
0.0308002
0.166933
0.228704
0.272279
0.337785
0.384759
0.413223
0.429658
0.437581
0.437925
0.42982
0.410061
0.372967
0.316301
0.293624
0.288998
0.292553
0.312525
0.366478
0.404282
0.423017
0.429245
0.424664
0.409343
0.379317
0.333403
0.263036
0.191748
0.0317882
0.00658907
0
0.0217338
0
0
0
0
0
0
0
0
0
-0.00412397
0.00453223
-0.000493229
0.120087
0.176184
0.199794
0.2112
0.216357
0.216239
0.209645
0.191046
0.142186
0.00583544
-0.00608393
-0.000999625
-0.00583519
0.00102333
0.129427
0.184819
0.204407
0.210434
0.20813
0.195653
0.16699
0.124353
0.0118716
0.0160143
0
0
0
0
0
0
0
0
0
0
0
0
0
0
0
0
-0.0347993
-0.00640501
-0.00588425
-0.00540435
-0.00503446
-0.00496699
-0.00467581
-0.00431085
-0.00434285
0
0
0
0
0
-0.0381702
-0.00734382
-0.0076894
-0.00658576
-0.00490434
0
-0.00698904
-0.0108749
0
0
0
0
0
0
0
0
0
0
0
0
0
0
0
0
0
0
0
0
0
0
0
0
0
0
0
0
0
0
0
0
0
0
0
0
0
0
0
0
0
0
0
0
0
0
0
0
0
0
0
0
0
0
0
0
0
0
0
0
0
0
0
0
0
0
0
0
0
0
0
0
0
0
0
0
0
0
0
0
0
0
0
0
0
0
0
0
0
0
0
0
0
0
0
0
0
0
0
0
0
0
0
0
0
0
0
0
0
0
0
0
0
0
0
0
0
0
0
0
0
0
0
0
0
0
0
0
0
0
0
0
0
0
0
0
0
0
0
0
0
0
0
0
0
0
0
0
0
0
0
0
0
0
0
0
0
0
0
0
0
0
0
0
0
0
0
0
0
0
0
0
0
0
0
0
0
0
0
0
0
0
0
0
0
0
0
0
0
0
0
0
0
0
0
0
0
0
0
0
0
0
0
0
0
0
0
0
0
0
0
0
0
0
0
0
0
0
0
0
0
0
0
0
0
0
0
0
0
0
0
0
0
0
0
0
0
0
0
0
0
0
0
0
0
0
0
0
0
0
0
0
0
0
0
0
0
0
0
0
0
0
0
0
0
0
0
0
0
0
0
0
0
0
0
0
0
0
0
0
0
0
0
0
0
0
0
0
0
0
0
0
0
0
0
0
0
0
0
0
0
0
0
0
0
0
0
0
0
0
0
0
0
0
0
0
0
0
0
0
0
0
0
0
0
0
0
0
0
0
0
0
0
0
0
0
0
0
0
0
0
0
0
0
0
0
0
0
0
0
0
0
0
0
0
0
0
0
0
0
0
0
0
0
0
0
0
0
0
0
0
0
0
0
0
0
0
0
0
0
0
0
0
0
0
0
0
0
0
0
0
0
0
0
0
0
0
0
0
0
0
0
0
0
0
0
0
0
0
0
0
0
0
0
0
0
0
0
0
0
0
0
0
0
0
0
0
0
0
0
0
0
0
0
0
0
0
0
0
0
0
0
0
0
0
0
0
0
0
0
0
0
0
0
0
0
0
0
0
0
0
0
0
0
0
0
0
0
0
0
0
0
0
0
0
0
0
0
0
0
0
0
0
0
0
0
0
0
0
0
0
0
0
0
0
0
0
0
0
0
0
0
0
0
0
0
0
0
0
0
0
0
0
0
0
0
0
0
0
0
0
0
0
0
0
0
0
0
0
0
0
0
0
0
0
0
0
0
0
0
0
0
0
0
0
0
0
0
0
0
0
0
0
0
0
0
0
0
0
0
0
0
0
0
0
0
0
0
SCALARS rhs double 1
LOOKUP_TABLE default
-5.19121
-5.15809
-5.1561
-5.15433
-5.15264
-5.15108
-5.14974
-5.14863
-5.14778
-5.14718
-5.14685
-5.14676
-5.14691
-5.14724
-5.14774
-5.14834
-5.14899
-5.1496
-5.15008
-5.15033
-5.15023
-5.14873
-5.14934
-5.1485
-5.14752
-5.14646
-5.14537
-5.1443
-5.14326
-5.14226
-5.14133
-5.1405
-5.13984
-5.13951
-5.13972
-5.14073
-5.14282
-5.14588
-5.14925
-5.15372
-0.158604
-0.128666
-0.127903
-0.127188
-0.126349
-0.125451
-0.124553
-0.12376
-0.123161
-0.122808
-0.122752
-0.122847
-0.123138
-0.123593
-0.124177
-0.124851
-0.125561
-0.12624
-0.126799
-0.127152
-0.12718
-0.125834
-0.126695
-0.126119
-0.125435
-0.124708
-0.123982
-0.123288
-0.122626
-0.122013
-0.121454
-0.120974
-0.120642
-0.120548
-0.121047
-0.122469
-0.125099
-0.128838
-0.132863
-0.137719
-0.155814
-0.128435
-0.127844
-0.126969
-0.125827
-0.124671
-0.123733
-0.123051
-0.122585
-0.122324
-0.122319
-0.122357
-0.122567
-0.122949
-0.12349
-0.124154
-0.124886
-0.125599
-0.126192
-0.126563
-0.126558
-0.125144
-0.126057
-0.125458
-0.124769
-0.124058
-0.123364
-0.122694
-0.122056
-0.121421
-0.12048
-0.118768
-0.116124
-0.112891
-0.110211
-0.109195
-0.110499
-0.113963
-0.118472
-0.124655
-0.154055
-0.128799
-0.127584
-0.126522
-0.125771
-0.125091
-0.124234
-0.123276
-0.12246
-0.122028
-0.122077
-0.122246
-0.122604
-0.123077
-0.123633
-0.124261
-0.124937
-0.125602
-0.126177
-0.12657
-0.126545
-0.125041
-0.126044
-0.125424
-0.12473
-0.124005
-0.123261
-0.12251
-0.12159
-0.116884
-0.106752
-0.0944867
-0.0856248
-0.0836388
-0.0892005
-0.0993682
-0.111019
-0.12193
-0.130739
-0.133255
-0.152348
-0.128859
-0.128595
-0.128451
-0.127338
-0.125674
-0.124187
-0.123355
-0.123064
-0.123047
-0.123073
-0.122846
-0.122747
-0.122897
-0.123333
-0.12402
-0.124879
-0.125859
-0.126817
-0.127384
-0.127294
-0.12573
-0.127006
-0.126355
-0.125428
-0.124353
-0.123277
-0.121589
-0.0997091
-0.0708448
-0.0586897
-0.0707155
-0.0971538
-0.124353
-0.14262
-0.151115
-0.153521
-0.152982
-0.14519
-0.146426
-0.15197
-0.13221
-0.131738
-0.129963
-0.128302
-0.12709
-0.126574
-0.125848
-0.12465
-0.123688
-0.12316
-0.122916
-0.12313
-0.123636
-0.124326
-0.125177
-0.126295
-0.127452
-0.127898
-0.128145
-0.128399
-0.126616
-0.127359
-0.125858
-0.124515
-0.123507
-0.120911
-0.0517339
-0.0295441
-0.0709945
-0.129583
-0.166696
-0.174445
-0.159388
-0.138776
-0.122786
-0.113584
-0.106255
-0.111561
-0.123775
-0.155867
-0.137405
-0.135893
-0.134627
-0.133171
-0.132422
-0.130112
-0.127527
-0.125809
-0.125584
-0.125392
-0.125214
-0.125209
-0.125397
-0.125883
-0.126814
-0.127804
-0.127663
-0.128551
-0.129753
-0.128784
-0.125396
-0.126513
-0.125926
-0.125376
-0.121254
0.0321176
-0.0633697
-0.162817
-0.196699
-0.178337
-0.140322
-0.103809
-0.0906354
-0.0995459
-0.115619
-0.127731
-0.138498
-0.148414
-0.141615
-0.167807
-0.149135
-0.147615
-0.144993
-0.143302
-0.138435
-0.135059
-0.132665
-0.130707
-0.130646
-0.129157
-0.12827
-0.12788
-0.128038
-0.128572
-0.129316
-0.128191
-0.129697
-0.130342
-0.128469
-0.128146
-0.12595
-0.127834
-0.127149
-0.12179
0.121983
-0.22944
-0.197461
-0.172955
-0.126186
-0.092524
-0.0899653
-0.120394
-0.144227
-0.141854
-0.127871
-0.116738
-0.119211
-0.114788
-0.128943
-0.199789
-0.178897
-0.174059
-0.167512
-0.157546
-0.152528
-0.146978
-0.141932
-0.138081
-0.138309
-0.135046
-0.13377
-0.133273
-0.132964
-0.133602
-0.130948
-0.132467
-0.13143
-0.129291
-0.129852
-0.129255
-0.126412
-0.128341
-0.124097
0.159896
-0.428888
-0.0576938
-0.180505
-0.0930727
-0.106439
-0.138422
-0.154376
-0.131096
-0.109988
-0.116202
-0.128945
-0.138365
-0.135105
-0.133651
-0.128525
-0.283166
-0.244863
-0.230783
-0.208091
-0.190792
-0.175436
-0.165115
-0.156272
-0.153765
-0.147933
-0.144774
-0.142965
-0.141657
-0.142372
-0.138321
-0.139531
-0.136455
-0.133328
-0.131952
-0.129923
-0.130254
-0.128261
-0.126589
0.116315
-0.478685
0.0760306
-0.287229
-0.0361018
-0.183907
-0.146989
-0.12936
-0.128109
-0.146557
-0.155805
-0.146466
-0.134556
-0.129702
-0.128607
-0.125759
-0.124818
-0.468037
-0.355999
-0.310741
-0.279755
-0.240582
-0.206623
-0.184636
-0.173522
-0.174801
-0.162586
-0.158891
-0.156058
-0.155852
-0.151993
-0.152768
-0.148178
-0.143049
-0.13787
-0.133936
-0.131922
-0.132541
-0.12836
0.0219057
-0.348547
-0.00825343
-0.279663
-0.0370669
-0.255086
-0.0919705
-0.176574
-0.184811
-0.17912
-0.157005
-0.166839
-0.17467
-0.178573
-0.160824
-0.159966
-0.129786
-0.121093
-0.686477
-0.371766
-0.297289
-0.378399
-0.279203
-0.212037
-0.182646
-0.193987
-0.187221
-0.179989
-0.176721
-0.172396
-0.168488
-0.169232