# vtk DataFile Version 4.0
Nusif Fluid VTK output
ASCII
DATASET STRUCTURED_POINTS
DIMENSIONS 40 30 1
ORIGIN 0 0 0 
SPACING 0.2 0.2 1
POINT_DATA 1200 

VECTORS velocity double
0.00134189 -0.000676261  0
0.00401641 -0.000716096  0
0.00675825 -0.00079211  0
0.00967948 -0.000894658  0
0.0128184 -0.00101011  0
0.0161824 -0.0011208  0
0.0197429 -0.00120644  0
0.0233859 -0.00129925  0
0.0270892 -0.00121781  0
0.0307172 -0.00115156  0
0.03402 -0.000988423  0
0.0369004 -0.000719618  0
0.0392162 -0.000395045  0
0.0408187 -2.27689e-05  0
0.0416299 0.000384928  0
0.041629 0.000795882  0
0.0408363 0.00118072  0
0.0393152 0.00152151  0
0.0371681 0.00180538  0
0.034527 0.0020186  0
0.0315473 0.0021476  0
0.028407 0.00218196  0
0.025302 0.0021147  0
0.0224376 0.00194438  0
0.0200138 0.00167811  0
0.018206 0.00133303  0
0.0171457 0.00093537  0
0.0169064 0.000516605  0
0.0174991 0.000107805  0
0.0188777 -0.000265002  0
0.0209521 -0.000584043  0
0.0236052 -0.000840153  0
0.026705 -0.00102795  0
0.0300956 -0.0011282  0
0.0335208 -0.00105984  0
0.0364095 -0.000589185  0
0.0375017 0.00073852  0
0.0346165 0.00338925  0
0.0253855 0.00708506  0
0.00946111 0.010083  0
0.0013019 -0.00203864  0
0.00390039 -0.00216438  0
0.00657973 -0.00240317  0
0.00946163 -0.00272574  0
0.0125925 -0.00308925  0
0.0159862 -0.00343979  0
0.0195646 -0.00376362  0
0.0233746 -0.00389217  0
0.0272368 -0.00384021  0
0.0309465 -0.00357318  0
0.0344518 -0.00305862  0
0.0374935 -0.00227914  0
0.0399126 -0.00128034  0
0.0415983 -0.000124511  0
0.0424483 0.00112059  0
0.0424247 0.00237281  0
0.041562 0.00355023  0
0.0399397 0.00459119  0
0.0376644 0.0054543  0
0.0348681 0.00610344  0
0.0317096 0.00650015  0
0.0283728 0.00661051  0
0.0250629 0.00640966  0
0.0219993 0.00589027  0
0.0194008 0.00507216  0
0.0174619 0.00400876  0
0.0163281 0.00278305  0
0.0160777 0.00149398  0
0.0167163 0.000239716  0
0.0181841 -0.000898131  0
0.0203725 -0.00186427  0
0.0231437 -0.00263065  0
0.0263457 -0.00318183  0
0.0298035 -0.00346125  0
0.0332439 -0.00322789  0
0.0360871 -0.00178614  0
0.0370861 0.00221283  0
0.03412 0.010136  0
0.0249352 0.0211246  0
0.00927218 0.0300016  0
0.00121567 -0.00332555  0
0.00365132 -0.00355356  0
0.0061969 -0.00398561  0
0.00899368 -0.00457105  0
0.0121048 -0.00523576  0
0.0155084 -0.00592112  0
0.0192909 -0.00645048  0
0.0233097 -0.00673138  0
0.0274084 -0.00673197  0
0.0314992 -0.00629763  0
0.0353146 -0.00541375  0
0.0386793 -0.00409369  0
0.0413714 -0.00237035  0
0.0432205 -0.000350667  0
0.0441292 0.00181916  0
0.0440625 0.0039879  0
0.0430605 0.00601731  0
0.0412248 0.00780412  0
0.0386833 0.00928501  0
0.0355734 0.010406  0
0.0320531 0.0111023  0
0.0283127 0.0113127  0
0.0245759 0.0109849  0
0.0210938 0.0100946  0
0.0181272 0.00866907  0
0.0159135 0.00680274  0
0.0146287 0.00464798  0
0.0143613 0.0023888  0
0.0151051 0.000205943  0
0.0167703 -0.00175267  0
0.019208 -0.00338951  0
0.0222377 -0.00465805  0
0.0256667 -0.00553564  0
0.0292851 -0.00593247  0
0.0327939 -0.0054544  0
0.0356049 -0.00296197  0
0.036501 0.00374546  0
0.0334556 0.016867  0
0.0243599 0.034926  0
0.00903764 0.0494371  0
0.00107309 -0.00438668  0
0.00323927 -0.00474224  0
0.00556195 -0.00541739  0
0.00821152 -0.00633892  0
0.0112426 -0.0074197  0
0.0147718 -0.00849158  0
0.0187546 -0.00935121  0
0.0230935 -0.00995011  0
0.027671 -0.0100062  0
0.0322656 -0.009468  0
0.0366575 -0.00823512  0
0.0405394 -0.00630059  0
0.0436594 -0.00375135  0
0.0457948 -0.000739992  0
0.0468014 0.00250897  0
0.0466494 0.00573818  0
0.0454163 0.00872215  0
0.0432471 0.011321  0
0.0402955 0.0134797  0
0.0366998 0.015139  0
0.0326136 0.0161993  0
0.028234 0.0165598  0
0.0238112 0.0161231  0
0.0196492 0.0148288  0
0.0160831 0.0126994  0
0.0134254 0.00987769  0
0.0119066 0.00661154  0
0.011632 0.00320294  0
0.0125723 -5.47199e-05  0
0.0145842 -0.00292898  0
0.0174499 -0.00527414  0
0.020919 -0.00702809  0
0.0247385 -0.00816921  0
0.0286515 -0.00858475  0
0.0323284 -0.00774181  0
0.0351745 -0.00408491  0
0.0360095 0.00538427  0
0.0329047 0.0236255  0
0.0238857 0.0485292  0
0.00884528 0.0684432  0
0.000859022 -0.00509613  0
0.00261908 -0.0056149  0
0.00459957 -0.00660525  0
0.00699108 -0.00798226  0
0.00995203 -0.00959815  0
0.0135769 -0.0111943  0
0.0178324 -0.0126477  0
0.0226547 -0.013613  0
0.0278908 -0.0139236  0
0.0332713 -0.0133309  0
0.0384848 -0.0117466  0
0.0431695 -0.0091384  0
0.046947 -0.00560241  0
0.0495166 -0.00137828  0
0.050685 0.00318722  0
0.0504163 0.00769332  0
0.0488422 0.0117882  0
0.046192 0.0152894  0
0.0426613 0.0182084  0
0.0383668 0.0205158  0
0.0334419 0.0220512  0
0.0281036 0.0226456  0
0.0226538 0.0221314  0
0.0174799 0.0203801  0
0.0130316 0.0173883  0
0.00973849 0.0133666  0
0.00791063 0.0086978  0
0.00767607 0.0038565  0
0.00896455 -0.000703458  0
0.0115437 -0.00463579  0
0.0150867 -0.00773916  0
0.0192392 -0.00994656  0
0.0236648 -0.0112568  0
0.0280497 -0.011555  0
0.0320337 -0.0101916  0
0.0350182 -0.00522446  0
0.0358548 0.00709356  0
0.0326947 0.0304225  0
0.0236748 0.0620126  0
0.00875359 0.0871625  0
0.000553003 -0.00529217  0
0.00172828 -0.00601944  0
0.00319369 -0.00742457  0
0.00521807 -0.00940165  0
0.00803024 -0.0117152  0
0.0117219 -0.0141447  0
0.0163356 -0.0163575  0
0.0218175 -0.0179908  0
0.0279534 -0.0187036  0
0.0344446 -0.0182086  0
0.0408578 -0.0162913  0
0.0467085 -0.0129086  0
0.0514896 -0.00818019  0
0.0547598 -0.00243573  0
0.0562474 0.00379837  0
0.0559046 0.00990463  0
0.0539093 0.0153546  0
0.0505951 0.0198953  0
0.0462203 0.0237173  0
0.0408358 0.0268966  0
0.0345454 0.0290976  0
0.0276722 0.0300241  0
0.0206558 0.0294351  0
0.0140244 0.0270996  0
0.00839007 0.0229701  0
0.00431319 0.0173751  0
0.00217995 0.0108736  0
0.00213618 0.00418522  0
0.00404411 -0.00200059  0
0.00753456 -0.0071789  0
0.0121148 -0.0110885  0
0.0172803 -0.0136831  0
0.0225874 -0.0150195  0
0.0276612 -0.0150167  0
0.032118 -0.0129359  0
0.0353604 -0.00647191  0
0.0362598 0.00884043  0
0.0330163 0.0373147  0
0.0238528 0.0755391  0
0.00880573 0.105839  0
0.000130156 -0.00476743  0
0.000484132 -0.00575546  0
0.00121556 -0.00769248  0
0.00269879 -0.0104384  0
0.00520737 -0.0137477  0
0.00893291 -0.0173162  0
0.0139845 -0.0206452  0
0.0203068 -0.0232837  0
0.027672 -0.0247099  0
0.0356886 -0.0244992  0
0.0438144 -0.0223328  0
0.0513883 -0.018087  0
0.0577335 -0.0119182  0
0.0622619 -0.0042926  0
0.0645894 0.00404065  0
0.0645702 0.0122282  0
0.0622376 0.0195636  0
0.0579584 0.0254827  0
0.0521537 0.0305121  0
0.044713 0.0351313  0
0.0357189 0.0383536  0
0.0259563 0.0396121  0
0.0163127 0.0387166  0
0.00759577 0.035377  0
0.000604883 0.0295303  0
-0.00409862 0.0218105  0
-0.00621124 0.012902  0
-0.0056182 0.00382732  0
-0.00255651 -0.00439102  0
0.002411 -0.0110232  0
0.00855906 -0.0157475  0
0.0151831 -0.0185875  0
0.0217116 -0.0197234  0
0.0277158 -0.0191627  0
0.0328098 -0.0161121  0
0.0364143 -0.00791361  0
0.0374104 0.0106158  0
0.0340113 0.0444111  0
0.0245038 0.0893425  0
0.0090281 0.124787  0
-0.000438213 -0.00326242  0
-0.00120358 -0.00455686  0
-0.0014971 -0.00714061  0
-0.000846188 -0.0108918  0
0.00114242 -0.0155684  0
0.00481275 -0.0206886  0
0.0103535 -0.0256523  0
0.0177355 -0.0297734  0
0.0267229 -0.0323637  0
0.0368327 -0.0327744  0
0.0473879 -0.0305335  0
0.0575665 -0.0254369  0
0.0665372 -0.0176848  0
0.0736262 -0.0079427  0
0.0783376 0.00284937  0
0.0800957 0.0138768  0
0.0778966 0.024644  0
0.0718274 0.0329487  0
0.0631522 0.0397234  0
0.0513274 0.0473832  0
0.0362471 0.0523755  0
0.0202177 0.0535834  0
0.00555658 0.0512523  0
-0.00622858 0.045547  0
-0.0142075 0.0365362  0
-0.0184059 0.0259157  0
-0.0192429 0.0139575  0
-0.0167944 0.00194321  0
-0.0114521 -0.00869573  0
-0.00401003 -0.016911  0
0.0045219 -0.0223212  0
0.0132068 -0.0251029  0
0.0213522 -0.025661  0
0.0285112 -0.0241665  0
0.0343432 -0.0198121  0
0.0383297 -0.00958208  0
0.0393763 0.0124642  0
0.0356892 0.0518716  0
0.0256074 0.103694  0
0.0094075 0.144334  0
-0.00117781 -0.000465317  0
-0.00342847 -0.00206837  0
-0.00516593 -0.0053929  0
-0.00578439 -0.010443  0
-0.00465416 -0.0169331  0
-0.00122867 -0.0242165  0
0.00480436 -0.0314887  0
0.0134821 -0.0377978  0
0.0245633 -0.0422035  0
0.0375199 -0.0438037  0
0.0515741 -0.0419189  0
0.0658449 -0.0363018  0
0.0795537 -0.027304  0
0.0921772 -0.015843  0
0.103015 -0.00260686  0
0.110156 0.0126254  0
0.108848 0.0315923  0
0.0983175 0.0447918  0
0.0838195 0.0532449  0
0.0632035 0.0684938  0
0.0348308 0.0769098  0
0.00486604 0.0772362  0
-0.0201966 0.0695178  0
-0.0366299 0.0576972  0
-0.0439549 0.0418899  0
-0.0444829 0.0274903  0
-0.0409262 0.0118673  0
-0.033752 -0.00338241  0
-0.0237328 -0.0165229  0
-0.0119525 -0.0260955  0
0.000279945 -0.0316888  0
0.0118404 -0.033767  0
0.022009 -0.0330963  0
0.0304246 -0.0300904  0
0.0368875 -0.0239672  0
0.041036 -0.0113459  0
0.0418907 0.0145428  0
0.0377069 0.0598799  0
0.0268865 0.118803  0
0.00983846 0.164687  0
-0.00211427 0.00398966  0
-0.00632273 0.00219418  0
-0.0101363 -0.001888  0
-0.0127017 -0.00855445  0
-0.0129985 -0.0174583  0
-0.0101779 -0.0277349  0
-0.00375306 -0.0382286  0
0.00640371 -0.0476927  0
0.0201071 -0.0548988  0
0.0369042 -0.0586656  0
0.0561125 -0.0581289  0
0.0770828 -0.0531426  0
0.0995011 -0.0443992  0
0.123302 -0.0329844  0
0.146719 -0.0175339  0
0.165511 0.00380536  0
0.16538 0.0440358  0
0.143065 0.0673799  0
0.117941 0.0724629  0
0.0830573 0.106959  0
0.0306158 0.121443  0
-0.0273853 0.122854  0
-0.0739705 0.0977354  0
-0.0967524 0.0708852  0
-0.0992038 0.0406712  0
-0.0906048 0.0228333  0
-0.0777037 0.00226445  0
-0.0604383 -0.0160188  0
-0.041156 -0.0309854  0
-0.0215939 -0.0407709  0
-0.00348306 -0.0451506  0
0.0120257 -0.0451669  0
0.0244824 -0.0421133  0
0.0338759 -0.0366734  0
0.0403349 -0.0280967  0
0.0438504 -0.012671  0
0.0438442 0.0172288  0
0.0389104 0.0685206  0
0.0275357 0.134567  0
0.0100432 0.185673  0
-0.00333911 0.0105906  0
-0.0102644 0.00898037  0
-0.0172274 0.00431406  0
-0.0229017 -0.00432151  0
-0.0256144 -0.0164865  0
-0.0240743 -0.0308685  0
-0.0176107 -0.0457911  0
-0.00601959 -0.059682  0
0.0107531 -0.0711952  0
0.0326928 -0.0789172  0
0.0596017 -0.0818067  0
0.0914377 -0.0800866  0
0.128407 -0.0746588  0
0.170505 -0.0664411  0
0.210705 -0.0455125  0
0.247196 -0.0213188  0
0.250094 0.0685722  0
0.201109 0.116322  0
0.153604 0.0983268  0
0.101959 0.169798  0
0.0253001 0.189881  0
-0.0731235 0.213018  0
-0.161597 0.144808  0
-0.19135 0.0785305  0
-0.178648 0.0249616  0
-0.157838 0.011322  0
-0.133865 -0.0209072  0
-0.100039 -0.0417447  0
-0.065112 -0.0572724  0
-0.0323632 -0.0645964  0
-0.00503921 -0.0645598  0
0.0156428 -0.059747  0
0.0300921 -0.0522368  0
0.0392229 -0.0428713  0
0.0438758 -0.0308076  0
0.044775 -0.0121718  0
0.0424595 0.0212541  0
0.036717 0.0773742  0
0.0260067 0.15  0
0.00956174 0.206379  0
-0.00528889 0.020356  0
-0.0166727 0.0197694  0
-0.0289535 0.0149678  0
-0.0398988 0.00383371  0
-0.046784 -0.0128508  0
-0.04776 -0.0328762  0
-0.0420941 -0.0537231  0
-0.0296194 -0.0736273  0
-0.00963981 -0.091814  0
0.0191025 -0.106797  0
0.0571277 -0.116679  0
0.104591 -0.122333  0
0.159881 -0.122494  0
0.222823 -0.121469  0
0.266076 -0.071762  0
0.307876 -0.0711864  0
0.330721 0.0948704  0
0.247789 0.224113  0
0.132163 0.155295  0
0.0661374 0.231586  0
0.00747918 0.264496  0
-0.0848086 0.330201  0
-0.221639 0.254016  0
-0.275266 0.0543382  0
-0.230422 -0.00621019  0
-0.217252 0.0106945  0
-0.19647 -0.0628506  0
-0.144373 -0.0835359  0
-0.0915367 -0.101054  0
-0.0404843 -0.102424  0
-0.000221326 -0.0921252  0
0.0264359 -0.077325  0
0.0412102 -0.0616856  0
0.0468782 -0.0460242  0
0.0457744 -0.0290067  0
0.0401038 -0.00700454  0
0.0330009 0.0277016  0
0.0273565 0.0845095  0
0.0207767 0.162351  0
0.0082036 0.225242  0
-0.00940227 0.0361777  0
-0.0298046 0.0379654  0
-0.0520969 0.0335331  0
-0.0723555 0.0186587  0
-0.0863106 -0.00464659  0
-0.09159 -0.0326398  0
-0.0877114 -0.0613174  0
-0.0750689 -0.0889671  0
-0.0517678 -0.117572  0
-0.0139892 -0.145379  0
0.0375427 -0.165476  0
0.101494 -0.182775  0
0.165655 -0.179329  0
0.2407 -0.200448  0
0.251455 -0.0451629  0
0.195844 -0.0828901  0
0.175443 0.105216  0
0.175152 0.298076  0
0.103602 0.247788  0
0.0152206 0.127704  0
-0.0586428 0.149667  0
-0.10184 0.193826  0
-0.10624 0.181264  0
-0.124475 0.029131  0
-0.143778 -0.00545441  0
-0.213376 0.0674555  0
-0.222017 -0.130117  0
-0.15914 -0.129059  0
-0.102607 -0.162715  0
-0.0353011 -0.156932  0
0.0184036 -0.129395  0
0.0504719 -0.0965905  0
0.0621344 -0.0666653  0
0.0585423 -0.0409287  0
0.0449546 -0.0172193  0
0.026758 0.00726606  0
0.0119371 0.0375447  0
0.00949762 0.0849393  0
0.0137586 0.166428  0
0.00757234 0.242112  0
-0.0185543 0.0652578  0
-0.0578374 0.0707858  0
-0.0989647 0.0663138  0
-0.135016 0.0443712  0
-0.159479 0.0102431  0
-0.169462 -0.0300857  0
-0.165057 -0.069973  0
-0.150234 -0.105597  0
-0.122445 -0.149855  0
-0.0728182 -0.198325  0
-0.0139965 -0.22071  0
0.0547597 -0.258076  0
0.095212 -0.207012  0
0.0946471 -0.24616  0
0.181859 -0.127912  0
0.138259 -0.0313896  0
-0.00498488 0.0527531  0
0.0788674 0.149038  0
0.0875762 0.149038  0
0 0  0
0 0  0
0 0  0
-0.0622377 0.0145655  0
-0.116834 0.0145655  0
-0.188088 0.00692395  0
-0.176833 -0.0267373  0
-0.0866831 -0.171226  0
-0.094932 -0.141487  0
-0.067211 -0.232906  0
-0.000515072 -0.21856  0
0.0558071 -0.175609  0
0.0915521 -0.116003  0
0.097867 -0.0630434  0
0.0796809 -0.0205852  0
0.0464136 0.0114787  0
0.0109648 0.0343984  0
-0.0133213 0.0517028  0
-0.00945272 0.0715344  0
0.013574 0.154728  0
0.0124899 0.263265  0
-0.0344994 0.119425  0
-0.105827 0.129429  0
-0.176878 0.122028  0
-0.234746 0.0847577  0
-0.269336 0.0310886  0
-0.276744 -0.0313616  0
-0.258037 -0.0896322  0
-0.235016 -0.121605  0
-0.206298 -0.18818  0
-0.147366 -0.266386  0
-0.106475 -0.250733  0
-0.103649 -0.298551  0
0.0153558 -0.252499  0
0.114504 -0.12308  0
0.0473236 -0.12308  0
0 0  0
0 0  0
0 0  0
0 0  0
0 0  0
0 0  0
0 0  0
0 0  0
0 0  0
0 0  0
-0.0433415 -0.0856131  0
-0.105677 -0.0856131  0
-0.0275012 -0.200784  0
0.0696687 -0.26833  0
0.0718246 -0.250897  0
0.10067 -0.226804  0
0.136927 -0.134627  0
0.142244 -0.053868  0
0.11574 0.0171126  0
0.0662063 0.0587648  0
0.0197684 0.0711787  0
-0.0181871 0.0793409  0
-0.0215475 0.0455633  0
0.018665 0.119635  0
0.0217198 0.298563  0
-0.0529947 0.208019  0
-0.16049 0.221843  0
-0.262909 0.205259  0
-0.336927 0.13559  0
-0.368942 0.0490375  0
-0.358145 -0.050523  0
-0.306612 -0.138538  0
-0.278887 -0.121814  0
-0.27379 -0.2207  0
-0.261596 -0.303907  0
-0.160127 -0.278733  0
-0.081153 -0.149275  0
-0.0518245 -0.149275  0
0 0  0
0 0  0
0 0  0
0 0  0
0 0  0
0 0  0
0 0  0
0 0  0
0 0  0
0 0  0
0 0  0
0 0  0
0 0  0
0 0  0
0.0348343 -0.134165  0
0.0620302 -0.134165  0
0.105675 -0.253  0
0.156959 -0.252948  0
0.152543 -0.139232  0
0.154752 -0.0551528  0
0.142776 0.0590584  0
0.10637 0.104939  0
0.0887492 0.0912395  0
0.0293027 0.158311  0
-0.0466159 0.0469575  0
-0.052755 0.0852536  0
-0.0213026 0.299523  0
-0.122961 0.384522  0
-0.283318 0.314284  0
-0.337115 0.270121  0
-0.362012 0.17073  0
-0.371466 0.0564539  0
-0.365941 -0.0731736  0
-0.35946 -0.172816  0
-0.263634 -0.143767  0
-0.179195 -0.116447  0
-0.226089 -0.151954  0
-0.130798 -0.151954  0
0 0  0
0 0  0
0 0  0
0 0  0
0 0  0
0 0  0
0 0  0
0 0  0
0 0  0
0 0  0
0 0  0
0 0  0
0 0  0
0 0  0
0 0  0
0 0  0
0 0  0
0 0  0
0.0784796 -0.126474  0
0.0978934 -0.126474  0
0.0889129 -0.0980244  0
0.138998 -0.0612328  0
0.135363 0.0823859  0
0.140066 0.115493  0
0.148405 0.0915989  0
0.136387 0.15477  0
0.0248027 0.0316232  0
-0.160242 0.0375519  0
-0.122861 0.13911  0
-0.0450602 0.253741  0
-0.172837 0.175841  0
-0.250888 0.14326  0
-0.247457 0.0896135  0
-0.242025 0.0287055  0
-0.250828 -0.0398277  0
-0.312879 -0.0864081  0
-0.17973 -0.0864081  0
0 0  0
0 0  0
0 0  0
0 0  0
0 0  0
0 0  0
0 0  0
0 0  0
0 0  0
0 0  0
0 0  0
0 0  0
0 0  0
0 0  0
0 0  0
0 0  0
0 0  0
0 0  0
0 0  0
0 0  0
0 0  0
0 0  0
0 0  0
0.0694991 -0.0306164  0
0.143959 0.012667  0
0.148921 0.0865669  0
0.148921 0.107698  0
0.148663 0.0996486  0
0.0742027 0.0457995  0
0 0  0
0 0  0
0 0  0
0 0  0
0 0  0
0 0  0
0 0  0
0 0  0
0 0  0
0 0  0
0 0  0
0 0  0
0 0  0
0 0  0
0 0  0
0 0  0
0 0  0
0 0  0
0 0  0
0 0  0
0 0  0
0 0  0
0 0  0
0 0  0
0 0  0
0 0  0
0 0  0
0 0  0
0 0  0
0 0  0
0 0  0
0 0  0
0 0  0
0 0  0
0 0  0
0.0744603 0.0432835  0
0.138355 0.0432835  0
0.138355 0.0538492  0
0.0744603 0.0538492  0
0 0  0
0 0  0
0 0  0
0 0  0
0 0  0
0 0  0
0 0  0
0 0  0
0 0  0
0 0  0
0 0  0
0 0  0
0 0  0
0 0  0
0 0  0
0 0  0
0 0  0
0 0  0
0 0  0
0 0  0
0 0  0
0 0  0
0 0  0
0 0  0
0 0  0
0 0  0
0 0  0
0 0  0
0 0  0
0 0  0
0 0  0
0 0  0
0 0  0
0 0  0
0 0  0
0 0  0
0 0  0
0 0  0
0 0  0
0 0  0
0 0  0
0 0  0
0 0  0
0 0  0
0 0  0
0 0  0
0 0  0
0 0  0
0 0  0
0 0  0
0 0  0
0 0  0
0 0  0
0 0  0
0 0  0
0 0  0
0 0  0
0 0  0
0 0  0
0 0  0
0 0  0
0 0  0
0 0  0
0 0  0
0 0  0
0 0  0
0 0  0
0 0  0
0 0  0
0 0  0
0 0  0
0 0  0
0 0  0
0 0  0
0 0  0
0 0  0
0 0  0
0 0  0
0 0  0
0 0  0
0 0  0
0 0  0
0 0  0
0 0  0
0 0  0
0 0  0
0 0  0
0 0  0
0 0  0
0 0  0
0 0  0
0 0  0
0 0  0
0 0  0
0 0  0
0 0  0
0 0  0
0 0  0
0 0  0
0 0  0
0 0  0
0 0  0
0 0  0
0 0  0
0 0  0
0 0  0
0 0  0
0 0  0
0 0  0
0 0  0
0 0  0
0 0  0
0 0  0
0 0  0
0 0  0
0 0  0
0 0  0
0 0  0
0 0  0
0 0  0
0 0  0
0 0  0
0 0  0
0 0  0
0 0  0
0 0  0
0 0  0
0 0  0
0 0  0
0 0  0
0 0  0
0 0  0
0 0  0
0 0  0
0 0  0
0 0  0
0 0  0
0 0  0
0 0  0
0 0  0
0 0  0
0 0  0
0 0  0
0 0  0
0 0  0
0 0  0
0 0  0
0 0  0
0 0  0
0 0  0
0 0  0
0 0  0
0 0  0
0 0  0
0 0  0
0 0  0
0 0  0
0 0  0
0 0  0
0 0  0
0 0  0
0 0  0
0 0  0
0 0  0
0 0  0
0 0  0
0 0  0
0 0  0
0 0  0
0 0  0
0 0  0
0 0  0
0 0  0
0 0  0
0 0  0
0 0  0
0 0  0
0 0  0
0 0  0
0 0  0
0 0  0
0 0  0
0 0  0
0 0  0
0 0  0
0 0  0
0 0  0
0 0  0
0 0  0
0 0  0
0 0  0
0 0  0
0 0  0
0 0  0
0 0  0
0 0  0
0 0  0
0 0  0
0 0  0
0 0  0
0 0  0
0 0  0
0 0  0
0 0  0
0 0  0
0 0  0
0 0  0
0 0  0
0 0  0
0 0  0
0 0  0
0 0  0
0 0  0
0 0  0
0 0  0
0 0  0
0 0  0
0 0  0
0 0  0
0 0  0
0 0  0
0 0  0
0 0  0
0 0  0
0 0  0
0 0  0
0 0  0
0 0  0
0 0  0
0 0  0
0 0  0
0 0  0
0 0  0
0 0  0
0 0  0
0 0  0
0 0  0
0 0  0
0 0  0
0 0  0
0 0  0
0 0  0
0 0  0
0 0  0
0 0  0
0 0  0
0 0  0
0 0  0
0 0  0
0 0  0
0 0  0
0 0  0
0 0  0
0 0  0
0 0  0
0 0  0
0 0  0
0 0  0
0 0  0
0 0  0
0 0  0
0 0  0
0 0  0
0 0  0
0 0  0
0 0  0
0 0  0
0 0  0
0 0  0
0 0  0
0 0  0
0 0  0
0 0  0
0 0  0
0 0  0
0 0  0
0 0  0
0 0  0
0 0  0
0 0  0
0 0  0
0 0  0
0 0  0
0 0  0
0 0  0
0 0  0
0 0  0
0 0  0
0 0  0
0 0  0
0 0  0
0 0  0
0 0  0
0 0  0
0 0  0
0 0  0
0 0  0
0 0  0
0 0  0
0 0  0
0 0  0
0 0  0
0 0  0
0 0  0
0 0  0
0 0  0
0 0  0
0 0  0
0 0  0
0 0  0
0 0  0
0 0  0
0 0  0
0 0  0
0 0  0
0 0  0
0 0  0
0 0  0
0 0  0
0 0  0
0 0  0
0 0  0
0 0  0
0 0  0
0 0  0
0 0  0
0 0  0
0 0  0
0 0  0
0 0  0
0 0  0
0 0  0
0 0  0
0 0  0
0 0  0
0 0  0
0 0  0
0 0  0
0 0  0
0 0  0
0 0  0
0 0  0
0 0  0
0 0  0
0 0  0
0 0  0
0 0  0
0 0  0
0 0  0
0 0  0
0 0  0
0 0  0
0 0  0
0 0  0
0 0  0
0 0  0
0 0  0
0 0  0
0 0  0
0 0  0
0 0  0
0 0  0
0 0  0
0 0  0
0 0  0
0 0  0
0 0  0
0 0  0
0 0  0
0 0  0
0 0  0
0 0  0
0 0  0
0 0  0
0 0  0
0 0  0
0 0  0
0 0  0
0 0  0
0 0  0
0 0  0
0 0  0
0 0  0
0 0  0
0 0  0
0 0  0
0 0  0
0 0  0
0 0  0
0 0  0
0 0  0
0 0  0
0 0  0
0 0  0
0 0  0
0 0  0
0 0  0
0 0  0
0 0  0
0 0  0
0 0  0
0 0  0
0 0  0
0 0  0
0 0  0
0 0  0
0 0  0
0 0  0
0 0  0
0 0  0
0 0  0
0 0  0
0 0  0
0 0  0
0 0  0
0 0  0
0 0  0
0 0  0
0 0  0
0 0  0
0 0  0
0 0  0
0 0  0
0 0  0
0 0  0
0 0  0
0 0  0
0 0  0
0 0  0
0 0  0
0 0  0
0 0  0
0 0  0
0 0  0
0 0  0
0 0  0
0 0  0
0 0  0
0 0  0
0 0  0
0 0  0
0 0  0
0 0  0
0 0  0

SCALARS pressure double 1
LOOKUP_TABLE default
3.82519
3.81751
3.80574
3.79002
3.77056
3.74762
3.72155
3.69275
3.66356
3.63119
3.59813
3.56549
3.53327
3.5023
3.47361
3.44792
3.42583
3.40802
3.39506
3.38732
3.38498
3.38806
3.39637
3.40953
3.42699
3.44807
3.472
3.49797
3.52515
3.55273
3.57997
3.6062
3.63082
3.65335
3.67339
3.69062
3.70482
3.71585
3.72353
3.72758
3.61673
3.60902
3.59713
3.58122
3.5615
3.53823
3.51172
3.48443
3.45216
3.42028
3.38706
3.35322
3.32035
3.28887
3.25941
3.23291
3.21024
3.19195
3.17857
3.17055
3.16816
3.17138
3.18001
3.19363
3.21167
3.23342
3.25806
3.28474
3.31261
3.34083
3.36865
3.39537
3.42041
3.44325
3.46352
3.48091
3.49523
3.50634
3.51407
3.51816
3.40343
3.39563
3.38353
3.36727
3.34704
3.32308
3.29759
3.26667
3.23549
3.20158
3.16703
3.13215
3.09761
3.06454
3.03367
3.0058
2.98174
2.96231
2.94814
2.93966
2.93715
2.94066
2.94998
2.96463
2.98395
3.00714
3.03331
3.06154
3.09089
3.1205
3.14956
3.17735
3.20325
3.22678
3.24756
3.26534
3.27992
3.29119
3.29902
3.30314
3.18551
3.17758
3.16516
3.14837
3.1274
3.10386
3.07527
3.04476
3.01079
2.97572
2.93899
2.90184
2.86516
2.82968
2.79644
2.76634
2.74027
2.71906
2.70353
2.69427
2.69162
2.69565
2.70608
2.72237
2.74374
2.76924
2.79785
2.82851
2.86022
2.892
2.92297
2.95238
2.97962
3.0042
3.02579
3.04414
3.0591
3.0706
3.07855
3.08272
2.96323
2.95514
2.94232
2.92487
2.9038
2.87824
2.84865
2.81592
2.78028
2.74231
2.70306
2.66289
2.62294
2.58428
2.54779
2.51454
2.48553
2.46182
2.44433
2.4339
2.43103
2.43578
2.44785
2.46655
2.49088
2.51968
2.55176
2.58589
2.62087
2.65563
2.68922
2.72086
2.74992
2.77592
2.79854
2.81759
2.833
2.84477
2.85285
2.85706
2.73693
2.72868
2.7154
2.69761
2.67543
2.64794
2.61697
2.58168
2.54341
2.50233
2.45936
2.41542
2.37134
2.32837
2.28765
2.25025
2.21733
2.19008
2.16981
2.15772
2.15449
2.16027
2.17464
2.19668
2.2251
2.25844
2.29518
2.33387
2.37317
2.41182
2.44883
2.48334
2.51468
2.5424
2.56622
2.58606
2.60193
2.61393
2.62209
2.62632
2.50704
2.49863
2.48503
2.46667
2.44269
2.41393
2.38042
2.34263
2.30084
2.25596
2.20855
2.15966
2.11045
2.0621
2.01598
1.97333
1.9353
1.90323
1.87896
1.86445
1.86073
1.86792
1.88544
1.91212
1.9461
1.98539
2.0282
2.07282
2.11757
2.16119
2.20247
2.24048
2.27454
2.30424
2.32937
2.34996
2.36619
2.37829
2.38645
2.39064
2.27399
2.26553
2.25168
2.23223
2.20679
2.17623
2.14006
2.09908
2.0534
2.00377
1.95103
1.89613
1.84042
1.78544
1.73272
1.68367
1.63917
1.60046
1.57023
1.55225
1.54786
1.55698
1.5788
1.61196
1.65337
1.70043
1.75106
1.80311
1.85481
1.90449
1.95093
1.99312
2.03035
2.06221
2.08863
2.1098
2.12611
2.13805
2.14598
2.15003
2.03831
2.02989
2.01566
1.99502
1.96835
1.93549
1.89661
1.85186
1.80174
1.74661
1.68739
1.62518
1.56146
1.4982
1.43748
1.38118
1.32897
1.28095
1.24099
1.21807
1.21302
1.22484
1.25231
1.29499
1.34651
1.40342
1.46394
1.52541
1.58556
1.64264
1.69525
1.74235
1.78316
1.8173
1.84481
1.86613
1.88201
1.89329
1.90066
1.9044
1.8005
1.79217
1.77744
1.7559
1.72783
1.6927
1.65076
1.60196
1.54673
1.48536
1.41848
1.34729
1.27346
1.19963
1.12873
1.06542
1.0053
0.9444
0.885926
0.856551
0.851609
0.866936
0.900998
0.95978
1.02512
1.09392
1.16702
1.24002
1.3107
1.37676
1.4367
1.48953
1.53433
1.57075
1.59894
1.61967
1.6342
1.64402
1.6503
1.65353
1.56099
1.55275
1.53759
1.51546
1.48598
1.44867
1.40341
1.35032
1.28951
1.22109
1.14527
1.06309
0.975988
0.887878
0.801587
0.733509
0.669471
0.593272
0.49131
0.457261
0.455511
0.473257
0.51056
0.605308
0.689506
0.769846
0.85936
0.946962
1.031
1.10805
1.17677
1.23631
1.2856
1.32422
1.3524
1.37129
1.38302
1.39014
1.3946
1.397
1.32008
1.31193
1.29667
1.27416
1.24354
1.20411
1.15535
1.09769
1.03131
0.955118
0.868834
0.773457
0.668134
0.560949
0.442984
0.377308
0.323441
0.247458
0.0179926
0.0115885
0.0171543
0.0285545
0.0383847
0.243539
0.344096
0.423259
0.539697
0.645341
0.74706
0.837583
0.917112
0.984666
1.03917
1.08
1.10715
1.12228
1.1289
1.13155
1.13316
1.13431
1.07788
1.06978
1.05476
1.0322
1.00088
0.959439
0.906748
0.844023
0.772929
0.688932
0.589758
0.480506
0.347453
0.226192
0.0165666
0.00982457
0
0.0169571
0
0
0
0
0
-0.0177231
0.00957251
0.0242439
0.21331
0.333613
0.459898
0.565599
0.659334
0.736613
0.797749
0.841188
0.86597
0.87428
0.872056
0.867861
0.86529
0.864593
0.834082
0.825622
0.810946
0.788869
0.757448
0.714332
0.656479
0.586526
0.513993
0.423966
0.305573
0.193141
-0.00077931
-0.0220229
0
0
0
0
0
0
0
0
0
0
0
0
-0.0394286
0.00344895
0.177118
0.289967
0.404481
0.493067
0.564094
0.611833
0.63267
0.629195
0.611108
0.596885
0.588883
0.585723
0.587144
0.576488
0.561694
0.540853
0.511256
0.468135
0.403382
0.315496
0.253321
0.166777
-0.00239292
-0.0247525
0
0
0
0
0
0
0
0
0
0
0
0
0
0
0
0
-0.0501785
-0.00205017
0.157768
0.251765
0.340955
0.3975
0.4133
0.38935
0.338448
0.312436
0.298773
0.292636
0.33331
0.313569
0.298097
0.281002
0.258845
0.224167
0.1562
0.00255853
-0.00618833
-0.0241768
0
0
0
0
0
0
0
0
0
0
0
0
0
0
0
0
0
0
0
0
-0.0387893
0.00141208
0.138298
0.210285
0.219458
0.16358
0.0290122
0.00792919
-0.00522111
-0.0108616
0.0626481
0.0180239
0.00792237
0.00423354
0.000607138
-0.00310375
-0.0186996
0
0
0
0
0
0
0
0
0
0
0
0
0
0
0
0
0
0
0
0
0
0
0
0
0
-0.00583979
0.0752664
0.0780091
0.00411945
0
0
0
0
0
0
0
0
0
0
0
0
0
0
0
0
0
0
0
0
0
0
0
0
0
0
0
0
0
0
0
0
0
0
0
0
0
0.0104494
0.00365998
0
0
0
0
0
0
0
0
0
0
0
0
0
0
0
0
0
0
0
0
0
0
0
0
0
0
0
0
0
0
0
0
0
0
0
0
0
0
0
0
0
0
0
0
0
0
0
0
0
0
0
0
0
0
0
0
0
0
0
0
0
0
0
0
0
0
0
0
0
0
0
0
0
0
0
0
0
0
0
0
0
0
0
0
0
0
0
0
0
0
0
0
0
0
0
0
0
0
0
0
0
0
0
0
0
0
0
0
0
0
0
0
0
0
0
0
0
0
0
0
0
0
0
0
0
0
0
0
0
0
0
0
0
0
0
0
0
0
0
0
0
0
0
0
0
0
0
0
0
0
0
0
0
0
0
0
0
0
0
0
0
0
0
0
0
0
0
0
0
0
0
0
0
0
0
0
0
0
0
0
0
0
0
0
0
0
0
0
0
0
0
0
0
0
0
0
0
0
0
0
0
0
0
0
0
0
0
0
0
0
0
0
0
0
0
0
0
0
0
0
0
0
0
0
0
0
0
0
0
0
0
0
0
0
0
0
0
0
0
0
0
0
0
0
0
0
0
0
0
0
0
0
0
0
0
0
0
0
0
0
0
0
0
0
0
0
0
0
0
0
0
0
0
0
0
0
0
0
0
0
0
0
0
0
0
0
0
0
0
0
0
0
0
0
0
0
0
0
0
0
0
0
0
0
0
0
0
0
0
0
0
0
0
0
0
0
0
0
0
0
0
0
0
0
0
0
0
0
0
0
0
0
0
0
0
0
0
0
0
0
0
0
0
0
0
0
0
0
0
0
0
0
0
0
0
0
0
0
0
0
0
0
0
0
0
0
0
0
0
0
0
0
0
0
0
0
0
0
0
0
0
0
0
0
0
0
0
0
0
0
0
0
0
0
0
0
0
0
0
0
0
0
0
0
0
0
0
0
0
0
0
0
0
0
0
0
0
0
0
0
0
0
0
0
0
0
0
0
0
0
0
0
0
0
0
0
0
0
0
0
0
0
0
0
0
0
0
0
0
0
0
0
0
0
0
0
0
0
0
0
0
0
0
0
0
0
0
0
0
0
0
0
0
0
0
0
0
0
0
0
0
0
0
0
0
SCALARS rhs double 1
LOOKUP_TABLE default
-5.28372
-5.24436
-5.24292
-5.24248
-5.24245
-5.24267
-5.24308
-5.24374
-5.24425
-5.24353
-5.24251
-5.24012
-5.23873
-5.23881
-5.23872
-5.239
-5.23745
-5.23677
-5.2375
-5.2377
-5.23719
-5.23696
-5.23743
-5.23793
-5.23801
-5.23809
-5.2385
-5.23913
-5.23976
-5.24035
-5.24097
-5.24165
-5.24235
-5.24302
-5.24358
-5.24391
-5.24423
-5.24596
-5.25139
-5.26121
-0.243988
-0.208331
-0.207661
-0.207365
-0.207319
-0.207419
-0.207545
-0.206548
-0.203916
-0.20366
-0.20262
-0.204347
-0.205068
-0.203449
-0.203875
-0.201601
-0.203163
-0.204061
-0.202988
-0.202539
-0.203463
-0.204387
-0.204003
-0.20345
-0.203865
-0.204416
-0.204389
-0.20425
-0.204514
-0.204978
-0.205409
-0.20567
-0.205944
-0.2063
-0.206475
-0.206207
-0.205877
-0.207392
-0.213664
-0.224494
-0.241982
-0.207213
-0.206777
-0.206672
-0.20642
-0.20586
-0.203633
-0.201474
-0.203996
-0.203247
-0.204044
-0.202608
-0.201155
-0.203151
-0.199936
-0.202262
-0.201495
-0.201166
-0.201393
-0.202139
-0.202431
-0.201702
-0.202028
-0.203048
-0.202808
-0.202303
-0.202792
-0.203457
-0.203587
-0.203554
-0.2038
-0.204618
-0.205289
-0.205198
-0.204584
-0.203918
-0.204052
-0.206037
-0.211967
-0.222147
-0.240405
-0.206544
-0.205911
-0.205172
-0.204006
-0.201663
-0.201824
-0.205033
-0.202156
-0.201646
-0.201076
-0.201279
-0.202575
-0.198726
-0.20145
-0.19947
-0.200547
-0.199733
-0.20046
-0.200841
-0.200146
-0.201234
-0.201846
-0.200835
-0.201279
-0.202463
-0.202121
-0.201616
-0.202185
-0.202972
-0.204107
-0.204025
-0.20314
-0.20283
-0.203002
-0.203441
-0.203374
-0.20463
-0.210282
-0.220147
-0.239344
-0.204688
-0.203685
-0.20254
-0.201233
-0.202787
-0.20327
-0.200363
-0.200656
-0.201632
-0.200719
-0.200727
-0.198871
-0.200619
-0.198496
-0.199749
-0.198025
-0.199638
-0.199375
-0.198674
-0.200248
-0.200246
-0.199484
-0.201122
-0.201605
-0.200167
-0.200774
-0.201888
-0.20203
-0.203205
-0.202201
-0.201393
-0.202025
-0.202438
-0.202473
-0.20194
-0.201954
-0.204054
-0.209505
-0.218627
-0.235543
-0.203249
-0.201805
-0.201252
-0.201971
-0.200542
-0.200816
-0.200441
-0.200973
-0.199469
-0.200348
-0.199748
-0.199295
-0.199097
-0.199094
-0.197744
-0.198885
-0.198089
-0.198124
-0.199343
-0.198986
-0.198952
-0.20089
-0.2005
-0.19966
-0.201614
-0.201197
-0.200778
-0.203355
-0.200638
-0.200326
-0.201565
-0.20156
-0.201375
-0.201091
-0.201315
-0.2015
-0.203416
-0.20895
-0.217701
-0.233351
-0.200791
-0.200415
-0.200025
-0.199506
-0.200955
-0.199107
-0.199964
-0.199828
-0.200362
-0.199823
-0.199526
-0.200333
-0.1999
-0.199637
-0.199023
-0.199154
-0.198846
-0.199123
-0.199707
-0.200045
-0.201376
-0.201147
-0.201348
-0.203779
-0.201535
-0.201589
-0.204733
-0.198956
-0.20074
-0.201959
-0.201006
-0.200717
-0.200361
-0.200335
-0.20027
-0.20113
-0.203856
-0.20923
-0.217514
-0.228129
-0.200231
-0.199221
-0.199503
-0.199235
-0.198764
-0.199437
-0.200162
-0.200055
-0.200812
-0.201233
-0.201751
-0.202911
-0.204694
-0.205197
-0.204538
-0.204959
-0.204023
-0.203767
-0.206643
-0.208407
-0.208746
-0.209048
-0.210419
-0.20652
-0.206945
-0.207843
-0.202171
-0.205078
-0.202647
-0.201403
-0.201166
-0.200285
-0.199781
-0.199512
-0.199992
-0.201056
-0.20428
-0.209818
-0.217908
-0.224276
-0.198523
-0.198602
-0.19851
-0.199768
-0.198813
-0.199756
-0.200806
-0.202402
-0.203346
-0.204932
-0.208054
-0.212119
-0.21879
-0.226076
-0.228388
-0.230976
-0.223341
-0.218258
-0.236557
-0.24113
-0.252156
-0.238499
-0.231708
-0.225034
-0.21813
-0.216797
-0.219877
-0.211557
-0.206927
-0.203086
-0.202115
-0.20061
-0.199617
-0.198982
-0.199198
-0.200494
-0.203592
-0.209447
-0.21821
-0.21973
-0.197973
-0.198585
-0.199727
-0.200528
-0.202131
-0.202976
-0.20285
-0.207236
-0.210205
-0.214945
-0.22331
-0.236171
-0.256076
-0.270881
-0.324624
-0.323843
-0.304777
-0.262747
-0.334413
-0.361363
-0.426358
-0.360017
-0.316699
-0.267224
-0.255016
-0.268251
-0.245977
-0.232339
-0.218811
-0.207418
-0.205455
-0.201878
-0.199469
-0.198136
-0.196851
-0.196729
-0.197947
-0.204747
-0.21655
-0.216365
-0.198774
-0.199854
-0.204091
-0.206716
-0.209916
-0.212389
-0.214536
-0.21467
-0.227274
-0.239179
-0.259531
-0.285764
-0.335084
-0.332713
-0.507902
-0.561183
-0.513861
-0.273134
-0.355069
-0.572042
-0.789376
-0.609468
-0.446702
-0.341444
-0.332896
-0.346468
-0.30125
-0.278749
-0.248613
-0.219647
-0.21287
-0.204973
-0.199858
-0.19621