# vtk DataFile Version 4.0
Nusif Fluid VTK output
ASCII
DATASET STRUCTURED_POINTS
DIMENSIONS 40 30 1
ORIGIN 0 0 0 
SPACING 0.2 0.2 1
POINT_DATA 1200 

VECTORS velocity double
-0.00506454 0.00469236  0
-0.0150144 0.00456879  0
-0.0245322 0.00431726  0
-0.0334166 0.00393836  0
-0.0414215 0.00344044  0
-0.048327 0.00284144  0
-0.053957 0.00216734  0
-0.0581915 0.00144823  0
-0.0609705 0.000713854  0
-0.0622891 -1.02949e-05  0
-0.062187 -0.000705094  0
-0.0607346 -0.00135894  0
-0.0580192 -0.00196673  0
-0.054134 -0.00252747  0
-0.0491732 -0.00304117  0
-0.0432332 -0.00350572  0
-0.036419 -0.00391452  0
-0.028854 -0.00425595  0
-0.0206879 -0.00451513  0
-0.0120995 -0.00467788  0
-0.00329014 -0.00473591  0
0.00553229 -0.00469087  0
0.0141764 -0.00455763  0
0.0224874 -0.00435793  0
0.0303537 -0.00411324  0
0.0377011 -0.00383939  0
0.044478 -0.00354318  0
0.0506364 -0.00322142  0
0.0561123 -0.00286136  0
0.0608078 -0.00244151  0
0.0645738 -0.0019325  0
0.0671958 -0.00129821  0
0.0683833 -0.000498549  0
0.0677678 0.000504152  0
0.0649211 0.00173209  0
0.0594094 0.00316873  0
0.0508972 0.00473233  0
0.0392941 0.00625919  0
0.0249094 0.00751384  0
0.00854484 0.00823895  0
-0.00520107 0.0142705  0
-0.0154251 0.0138978  0
-0.0252131 0.0131371  0
-0.0343506 0.0119871  0
-0.0425756 0.0104715  0
-0.0496527 0.00864581  0
-0.0553955 0.0065915  0
-0.0596814 0.00440296  0
-0.0624551 0.00217276  0
-0.0637221 -2.04331e-05  0
-0.0635352 -0.00211866  0
-0.0619779 -0.00408786  0
-0.0591476 -0.00591457  0
-0.055144 -0.007598  0
-0.0500634 -0.00914035  0
-0.0440003 -0.0105367  0
-0.0370564 -0.0117678  0
-0.0293518 -0.0127978  0
-0.0210362 -0.01358  0
-0.0122929 -0.0140695  0
-0.00333137 -0.0142396  0
0.0056296 -0.014095  0
0.0143904 -0.0136829  0
0.022794 -0.0130721  0
0.0307331 -0.0123298  0
0.0381418 -0.0115047  0
0.0449781 -0.0106173  0
0.0512017 -0.00965642  0
0.0567531 -0.0085815  0
0.061533 -0.00732533  0
0.065386 -0.00579705  0
0.068086 -0.00388594  0
0.0693272 -0.00147045  0
0.0687252 0.0015619  0
0.0658393 0.00527456  0
0.0602317 0.00961265  0
0.0515737 0.0143254  0
0.0397907 0.0189186  0
0.0252096 0.0226865  0
0.00864484 0.0248617  0
-0.00548779 0.0243323  0
-0.0162863 0.0237071  0
-0.0266396 0.022421  0
-0.0363054 0.0204595  0
-0.044986 0.0178588  0
-0.0524129 0.0147176  0
-0.0583784 0.0111842  0
-0.0627556 0.0074304  0
-0.0655011 0.00362234  0
-0.0666436 -0.000101885  0
-0.0662645 -0.00364379  0
-0.0644752 -0.00694944  0
-0.0613953 -0.0100026  0
-0.0571383 -0.0128096  0
-0.0518054 -0.015381  0
-0.045489 -0.0177138  0
-0.0382846 -0.0197772  0
-0.0303066 -0.0215089  0
-0.0217044 -0.0228246  0
-0.0126682 -0.0236423  0
-0.00342237 -0.023912  0
0.00579606 -0.02364  0
0.0147735 -0.0229142  0
0.0233508 -0.0218601  0
0.0314299 -0.0205985  0
0.0389611 -0.0192148  0
0.0459203 -0.0177419  0
0.0522819 -0.0161566  0
0.057993 -0.0143836  0
0.0629517 -0.012302  0
0.0669888 -0.00975109  0
0.0698549 -0.006539  0
0.0712142 -0.00245911  0
0.0706513 0.00267406  0
0.0677015 0.00895633  0
0.061918 0.01628  0
0.0529816 0.0242105  0
0.040842 0.031914  0
0.0258559 0.0382162  0
0.00886255 0.0418481  0
-0.00595523 0.0351557  0
-0.0176899 0.0342754  0
-0.0289627 0.0324355  0
-0.039482 0.0295879  0
-0.0488883 0.0257764  0
-0.0568567 0.0211551  0
-0.0631464 0.0159626  0
-0.067628 0.0104723  0
-0.0702824 0.0049427  0
-0.0711805 -0.000418418  0
-0.0704528 -0.00547009  0
-0.0682567 -0.010144  0
-0.0647486 -0.0144311  0
-0.0600655 -0.0183558  0
-0.0543194 -0.021948  0
-0.0476026 -0.0252138  0
-0.040004 -0.0281139  0
-0.0316315 -0.0305561  0
-0.0226328 -0.0324116  0
-0.0132052 -0.0335524  0
-0.00358778 -0.0338986  0
0.0059637 -0.0334568  0
0.0152228 -0.0323676  0
0.0240324 -0.0308276  0
0.0323097 -0.0290216  0
0.0400281 -0.0270756  0
0.0471864 -0.0250333  0
0.0537763 -0.0228518  0
0.0597515 -0.0204102  0
0.0650024 -0.0175207  0
0.0693377 -0.0139409  0
0.072473 -0.00938711  0
0.074028 -0.00356213  0
0.0735417 0.00378919  0
0.0705141 0.0127811  0
0.0644837 0.0232315  0
0.0551415 0.0344998  0
0.042469 0.0453989  0
0.0268639 0.0542847  0
0.00920367 0.0593955  0
-0.00666556 0.0471653  0
-0.0198209 0.0460254  0
-0.0324812 0.0435805  0
-0.0442714 0.0397155  0
-0.0547312 0.0344788  0
-0.0634503 0.028105  0
-0.0701452 0.020963  0
-0.0746929 0.0134679  0
-0.0771223 0.00599833  0
-0.0775754 -0.00115471  0
-0.07626 -0.00780812  0
-0.0734029 -0.0138897  0
-0.0692141 -0.0194123  0
-0.0638679 -0.0244336  0
-0.0574973 -0.0290162  0
-0.050202 -0.0331866  0
-0.0420685 -0.0369019  0
-0.0331992 -0.0400386  0
-0.0237383 -0.0424173  0
-0.0138837 -0.0438574  0
-0.00387816 -0.0442451  0
0.00601646 -0.0435852  0
0.015573 -0.0420838  0
0.0246465 -0.0400235  0
0.0331765 -0.0376622  0
0.0411616 -0.035168  0
0.0486227 -0.0325903  0
0.0555646 -0.029857  0
0.0619407 -0.0267868  0
0.0676245 -0.0231097  0
0.0723919 -0.0184862  0
0.075912 -0.012529  0
0.0777483 -0.00484375  0
0.0773827 0.00489028  0
0.0742692 0.0167883  0
0.0679253 0.0305657  0
0.0580536 0.0453464  0
0.0446741 0.059571  0
0.0282362 0.0711223  0
0.00966931 0.0777519  0
-0.00773522 0.0609642  0
-0.023022 0.0595502  0
-0.0377382 0.0563995  0
-0.051368 0.0512849  0
-0.0632954 0.0442658  0
-0.0729924 0.0357044  0
-0.08013 0.026167  0
-0.0846184 0.016272  0
-0.086577 0.00655488  0
-0.0862639 -0.00259791  0
-0.0840016 -0.0109687  0
-0.080113 -0.0185003  0
-0.0748822 -0.025246  0
-0.0685388 -0.0313139  0
-0.0612546 -0.0368148  0
-0.0531524 -0.0418093  0
-0.044327 -0.0462616  0
-0.0348781 -0.0500207  0
-0.0249408 -0.0528568  0
-0.0146977 -0.054539  0
-0.0043689 -0.0549214  0
0.00580861 -0.0540046  0
0.0156317 -0.0520677  0
0.0249839 -0.0494891  0
0.033834 -0.0466009  0
0.0422024 -0.0436072  0
0.0501206 -0.0405551  0
0.0575923 -0.0373309  0
0.0645548 -0.0336769  0
0.0708482 -0.0292227  0
0.0761997 -0.0235186  0
0.0802219 -0.0160656  0
0.0824176 -0.00636627  0
0.0822048 0.00596359  0
0.078986 0.0210193  0
0.0722552 0.0383813  0
0.0617268 0.0569026  0
0.0474645 0.0746281  0
0.0299782 0.0889608  0
0.0102615 0.0971686  0
-0.0093669 0.0774744  0
-0.0278824 0.0757366  0
-0.0456503 0.0716702  0
-0.06192 0.0648878  0
-0.0758483 0.0554935  0
-0.08676 0.0440612  0
-0.0942979 0.0314622  0
-0.0984651 0.0186097  0
-0.0995483 0.00623701  0
-0.0979879 -0.00517481  0
-0.0942636 -0.0153989  0
-0.0888221 -0.0244201  0
-0.0820433 -0.0323552  0
-0.0742349 -0.0393755  0
-0.0656387 -0.0456522  0
-0.0564284 -0.0513028  0
-0.0467191 -0.056321  0
-0.0366078 -0.0605398  0
-0.0262092 -0.0636916  0
-0.0156629 -0.0655116  0
-0.00512213 -0.0658364  0
0.00524628 -0.0646537  0
0.0152966 -0.0623104  0
0.0249617 -0.0592822  0
0.0342483 -0.0559634  0
0.0431876 -0.0525715  0
0.0517987 -0.0491394  0
0.0600606 -0.0454999  0
0.0678692 -0.0412993  0
0.0750001 -0.0360452  0
0.0811044 -0.029173  0
0.0857287 -0.0200793  0
0.0883202 -0.00816181  0
0.0882425 0.00702708  0
0.0848504 0.0255437  0
0.0776153 0.0467996  0
0.0662672 0.0693373  0
0.0509173 0.090782  0
0.0321388 0.108048  0
0.0109974 0.117916  0
-0.0118819 0.098142  0
-0.0353253 0.0959361  0
-0.0576278 0.09052  0
-0.0776641 0.0813238  0
-0.0942809 0.0685832  0
-0.106637 0.0532212  0
-0.114403 0.0365882  0
-0.117795 0.0200255  0
-0.117397 0.00449035  0
-0.113919 -0.00948271  0
-0.108032 -0.0217167  0
-0.100329 -0.0322609  0
-0.0913101 -0.0413262  0
-0.0813933 -0.0491431  0
-0.0709399 -0.0559472  0
-0.0602163 -0.0619545  0
-0.0493647 -0.0672427  0
-0.0384585 -0.0716482  0
-0.0275707 -0.0748822  0
-0.0167667 -0.0766839  0
-0.00607658 -0.0769076  0
0.00445091 -0.0754912  0
0.0147545 -0.0728397  0
0.0248436 -0.0695201  0
0.034779 -0.0659609  0
0.0445888 -0.0623368  0
0.0542485 -0.0586589  0
0.0636862 -0.0546943  0
0.0727236 -0.0499657  0
0.0810171 -0.0438184  0
0.0880821 -0.0355848  0
0.0933798 -0.0246058  0
0.0963258 -0.0101898  0
0.0962619 0.00817941  0
0.0925147 0.0305129  0
0.084541 0.0560211  0
0.0720942 0.0828922  0
0.0553381 0.108315  0
0.0349072 0.128706  0
0.0119418 0.140346  0
-0.0157169 0.125171  0
-0.0465884 0.122144  0
-0.0755336 0.114544  0
-0.10088 0.101668  0
-0.121074 0.0840373  0
-0.135094 0.0631306  0
-0.142738 0.0410762  0
-0.144658 0.019838  0
-0.141948 0.000560274  0
-0.135663 -0.0163268  0
-0.126661 -0.0307703  0
-0.115727 -0.0428527  0
-0.103523 -0.0529654  0
-0.0906102 -0.0613415  0
-0.0775601 -0.0682597  0
-0.0647976 -0.0741352  0
-0.0524588 -0.0792594  0
-0.0405167 -0.0834868  0
-0.0289688 -0.0864862  0
-0.017803 -0.0880568  0
-0.00686835 -0.0881665  0
0.0039339 -0.0865692  0
0.0146367 -0.0837754  0
0.0253724 -0.0804166  0
0.0362896 -0.0769247  0
0.0473977 -0.0732988  0
0.0586015 -0.0695685  0
0.0697751 -0.0654045  0
0.0806436 -0.0601705  0
0.0906508 -0.0529239  0
0.0990365 -0.0429402  0
0.105129 -0.0296516  0
0.108344 -0.0123168  0
0.108053 0.00964962  0
0.103588 0.0362421  0
0.0944015 0.066439  0
0.080304 0.0980052  0
0.0615398 0.127709  0
0.0387936 0.151476  0
0.0132704 0.165051  0
-0.0212988 0.161628  0
-0.0628588 0.157055  0
-0.101154 0.145865  0
-0.133823 0.127354  0
-0.158796 0.10251  0
-0.174749 0.0736243  0
-0.181721 0.0441922  0
-0.181188 0.017103  0
-0.175059 -0.00654775  0
-0.164712 -0.0268555  0
-0.15115 -0.043809  0
-0.135589 -0.057312  0
-0.118932 -0.0683691  0
-0.101835 -0.0769493  0
-0.0852521 -0.0832863  0
-0.0698789 -0.0882456  0
-0.0557401 -0.0926279  0
-0.0424662 -0.0963355  0
-0.0299099 -0.0987429  0
-0.0181109 -0.0997664  0
-0.00668776 -0.099816  0
0.00460046 -0.0980117  0
0.015884 -0.0953209  0
0.0275342 -0.0922588  0
0.0398178 -0.0892853  0
0.0526629 -0.0858937  0
0.0659326 -0.0824496  0
0.0795462 -0.0783136  0
0.0931742 -0.0727613  0
0.105922 -0.0640918  0
0.116441 -0.051682  0
0.123834 -0.0354005  0
0.127494 -0.0144495  0
0.126797 0.0117639  0
0.121093 0.0432898  0
0.109863 0.0787988  0
0.0931067 0.115491  0
0.0712205 0.149864  0
0.0448988 0.177379  0
0.0153719 0.193189  0
-0.0286278 0.211007  0
-0.0841326 0.203692  0
-0.134642 0.18703  0
-0.177124 0.160338  0
-0.208698 0.125071  0
-0.227133 0.0844507  0
-0.232573 0.044778  0
-0.228062 0.0104722  0
-0.216803 -0.018304  0
-0.200324 -0.042923  0
-0.179787 -0.0628387  0
-0.157771 -0.0768567  0
-0.135422 -0.0888264  0
-0.112876 -0.0971303  0
-0.0918273 -0.101733  0
-0.0735 -0.104495  0
-0.0577522 -0.10726  0
-0.0432122 -0.110513  0
-0.0292472 -0.112083  0
-0.0165301 -0.111939  0
-0.00441211 -0.112181  0
0.00738518 -0.109728  0
0.0191681 -0.107667  0
0.0319145 -0.105305  0
0.0458246 -0.103429  0
0.0604194 -0.100187  0
0.0757874 -0.0977909  0
0.0922355 -0.0940311  0
0.109657 -0.0890903  0
0.1268 -0.0786514  0
0.141085 -0.062926  0
0.151424 -0.0428884  0
0.156895 -0.017094  0
0.156376 0.0146225  0
0.14912 0.0523897  0
0.134741 0.0943037  0
0.113853 0.136628  0
0.0871851 0.176278  0
0.0552037 0.208264  0
0.0189858 0.227045  0
-0.0363511 0.27545  0
-0.106794 0.264161  0
-0.171428 0.240707  0
-0.226756 0.203475  0
-0.268214 0.153971  0
-0.290238 0.0950149  0
-0.292056 0.0404774  0
-0.280467 -0.00232229  0
-0.26125 -0.0369789  0
-0.235436 -0.0675343  0
-0.204301 -0.0908926  0
-0.174904 -0.101207  0
-0.147822 -0.114897  0
-0.119513 -0.122903  0
-0.0933353 -0.124176  0
-0.0720243 -0.12268  0
-0.0561507 -0.121687  0
-0.0416979 -0.126069  0
-0.0259839 -0.127195  0
-0.0121753 -0.124342  0
0.000746124 -0.125807  0
0.0126577 -0.120801  0
0.024322 -0.121032  0
0.0384262 -0.119782  0
0.0540653 -0.119492  0
0.0693686 -0.115012  0
0.0854387 -0.115395  0
0.103457 -0.111885  0
0.124512 -0.110704  0
0.147453 -0.0981135  0
0.167263 -0.0785519  0
0.184037 -0.0553702  0
0.195553 -0.0225954  0
0.197982 0.0172165  0
0.190091 0.0639458  0
0.171728 0.114491  0
0.145371 0.162687  0
0.112521 0.208738  0
0.0724471 0.246861  0
0.0252916 0.270823  0
-0.0402476 0.351524  0
-0.119789 0.33705  0
-0.197591 0.309262  0
-0.269468 0.261133  0
-0.327025 0.194338  0
-0.353939 0.102597  0
-0.346463 0.0262479  0
-0.322719 -0.0244145  0
-0.292982 -0.0648288  0
-0.255304 -0.104165  0
-0.210409 -0.13128  0
-0.176464 -0.125146  0
-0.152364 -0.143125  0
-0.12144 -0.154891  0
-0.0891679 -0.151622  0
-0.0639478 -0.142749  0
-0.0503511 -0.132073  0
-0.0390836 -0.142388  0
-0.0215065 -0.145152  0
-0.0062509 -0.136435  0
0.00787108 -0.141743  0
0.0197009 -0.129592  0
0.0307163 -0.135906  0
0.0468199 -0.136101  0
0.0641599 -0.137138  0
0.0787562 -0.128252  0
0.0930735 -0.133528  0
0.108684 -0.128365  0
0.130119 -0.1377  0
0.156808 -0.121733  0
0.179484 -0.0984055  0
0.206328 -0.0801243  0
0.232287 -0.0363079  0
0.243338 0.0164562  0
0.238344 0.0765983  0
0.216486 0.141066  0
0.18461 0.193351  0
0.146523 0.248016  0
0.0976434 0.295542  0
0.0351645 0.330782  0
-0.0331475 0.424405  0
-0.102818 0.412372  0
-0.185878 0.393816  0
-0.275212 0.336804  0
-0.355878 0.255907  0
-0.388447 0.0995282  0
-0.365395 -0.00219519  0
-0.331138 -0.0549556  0
-0.296066 -0.10008  0
-0.252789 -0.150852  0
-0.201086 -0.182176  0
-0.163785 -0.146477  0
-0.150943 -0.15947  0
-0.128725 -0.192177  0
-0.0909092 -0.184915  0
-0.0614108 -0.164666  0
-0.0458355 -0.139819  0
-0.0355926 -0.156643  0
-0.0208332 -0.163725  0
-0.00355559 -0.150887  0
0.0117715 -0.157232  0
0.0252072 -0.13986  0
0.0390302 -0.150967  0
0.0551032 -0.153707  0
0.0716727 -0.153932  0
0.0873429 -0.142215  0
0.100772 -0.147802  0
0.113726 -0.143147  0
0.131791 -0.162911  0
0.15383 -0.145742  0
0.166422 -0.110156  0
0.199132 -0.128669  0
0.247973 -0.0635514  0
0.269615 0.0100177  0
0.273424 0.0832342  0
0.251335 0.177389  0
0.215724 0.223526  0
0.1769 0.293759  0
0.11959 0.354996  0
0.0434771 0.408928  0
-0.014251 0.4713  0
-0.0446849 0.464586  0
-0.114079 0.493074  0
-0.196587 0.408407  0
-0.270831 0.338481  0
-0.318402 0.0966044  0
-0.315628 -0.0255883  0
-0.299386 -0.0825513  0
-0.275459 -0.131974  0
-0.254776 -0.18341  0
-0.249313 -0.207275  0
-0.251451 -0.157031  0
-0.175001 -0.159517  0
-0.108204 -0.105932  0
-0.108823 -0.101522  0
-0.09092 -0.0880172  0
-0.0525129 -0.0720129  0
-0.0213816 -0.0813398  0
-0.0224524 -0.0862239  0
-0.00777743 -0.0797205  0
0.00531276 -0.0820021  0
0.0222687 -0.0732618  0
0.0470787 -0.0790636  0
0.0568338 -0.0813103  0
0.0654769 -0.0807942  0
0.0831572 -0.0751145  0
0.101001 -0.0766084  0
0.123836 -0.0753434  0
0.135075 -0.0867182  0
0.12273 -0.0786276  0
0.176048 -0.135892  0
0.232772 -0.160548  0
0.242653 -0.0908876  0
0.246153 0.0117184  0
0.265899 0.0572396  0
0.250843 0.239789  0
0.215626 0.231214  0
0.201647 0.337886  0
0.148387 0.420452  0
0.0575369 0.509449  0
-0.00595053 0.491253  0
-0.0173256 0.485948  0
-0.0386261 0.561916  0
-0.054502 0.437459  0
-0.0430402 0.410443  0
-0.111195 0.0496141  0
-0.219316 -0.0154931  0
-0.242351 -0.0466974  0
-0.226652 -0.0725287  0
-0.224736 -0.0955049  0
-0.266303 -0.102569  0
-0.275504 -0.0785154  0
-0.125725 -0.0785154  0
0 0  0
0 0  0
0 0  0
0 0  0
0 0  0
0 0  0
0 0  0
0 0  0
0 0  0
0 0  0
0 0  0
0 0  0
0 0  0
0 0  0
0 0  0
0 0  0
0 0  0
0.116386 -0.0802742  0
0.202882 -0.0802742  0
0.153329 -0.0503845  0
0.150723 0.017934  0
0.17433 0.0243164  0
0.164355 0.252986  0
0.147831 0.225  0
0.103148 0.402268  0
0.0460107 0.465973  0
0.0167784 0.583518  0
-0.00303511 0.248602  0
-0.0576201 0.245686  0
-0.0116694 0.288896  0
0.0156645 0.21873  0
-0.027251 0.21873  0
0 0  0
0 0  0
0 0  0
0 0  0
0 0  0
0 0  0
0 0  0
0 0  0
0 0  0
0 0  0
0 0  0
0 0  0
0 0  0
0 0  0
0 0  0
0 0  0
0 0  0
0 0  0
0 0  0
0 0  0
0 0  0
0 0  0
0 0  0
0 0  0
0 0  0
0 0  0
0 0  0
0 0  0
0.0838906 0.00888383  0
0.17433 0.00888383  0
0.164355 0.1125  0
0.0368548 0.1125  0
-0.0235659 0.223476  0
-0.0306617 0.239213  0
-0.0441564 0.300148  0
0 0  0
0 0  0
0 0  0
0 0  0
0 0  0
0 0  0
0 0  0
0 0  0
0 0  0
0 0  0
0 0  0
0 0  0
0 0  0
0 0  0
0 0  0
0 0  0
0 0  0
0 0  0
0 0  0
0 0  0
0 0  0
0 0  0
0 0  0
0 0  0
0 0  0
0 0  0
0 0  0
0 0  0
0 0  0
0 0  0
0 0  0
0 0  0
0 0  0
0 0  0
0 0  0
0 0  0
0 0  0
0 0  0
0 0  0
0 0  0
0 0  0
0 0  0
0 0  0
0 0  0
0 0  0
0 0  0
0 0  0
0 0  0
0 0  0
0 0  0
0 0  0
0 0  0
0 0  0
0 0  0
0 0  0
0 0  0
0 0  0
0 0  0
0 0  0
0 0  0
0 0  0
0 0  0
0 0  0
0 0  0
0 0  0
0 0  0
0 0  0
0 0  0
0 0  0
0 0  0
0 0  0
0 0  0
0 0  0
0 0  0
0 0  0
0 0  0
0 0  0
0 0  0
0 0  0
0 0  0
0 0  0
0 0  0
0 0  0
0 0  0
0 0  0
0 0  0
0 0  0
0 0  0
0 0  0
0 0  0
0 0  0
0 0  0
0 0  0
0 0  0
0 0  0
0 0  0
0 0  0
0 0  0
0 0  0
0 0  0
0 0  0
0 0  0
0 0  0
0 0  0
0 0  0
0 0  0
0 0  0
0 0  0
0 0  0
0 0  0
0 0  0
0 0  0
0 0  0
0 0  0
0 0  0
0 0  0
0 0  0
0 0  0
0 0  0
0 0  0
0 0  0
0 0  0
0 0  0
0 0  0
0 0  0
0 0  0
0 0  0
0 0  0
0 0  0
0 0  0
0 0  0
0 0  0
0 0  0
0 0  0
0 0  0
0 0  0
0 0  0
0 0  0
0 0  0
0 0  0
0 0  0
0 0  0
0 0  0
0 0  0
0 0  0
0 0  0
0 0  0
0 0  0
0 0  0
0 0  0
0 0  0
0 0  0
0 0  0
0 0  0
0 0  0
0 0  0
0 0  0
0 0  0
0 0  0
0 0  0
0 0  0
0 0  0
0 0  0
0 0  0
0 0  0
0 0  0
0 0  0
0 0  0
0 0  0
0 0  0
0 0  0
0 0  0
0 0  0
0 0  0
0 0  0
0 0  0
0 0  0
0 0  0
0 0  0
0 0  0
0 0  0
0 0  0
0 0  0
0 0  0
0 0  0
0 0  0
0 0  0
0 0  0
0 0  0
0 0  0
0 0  0
0 0  0
0 0  0
0 0  0
0 0  0
0 0  0
0 0  0
0 0  0
0 0  0
0 0  0
0 0  0
0 0  0
0 0  0
0 0  0
0 0  0
0 0  0
0 0  0
0 0  0
0 0  0
0 0  0
0 0  0
0 0  0
0 0  0
0 0  0
0 0  0
0 0  0
0 0  0
0 0  0
0 0  0
0 0  0
0 0  0
0 0  0
0 0  0
0 0  0
0 0  0
0 0  0
0 0  0
0 0  0
0 0  0
0 0  0
0 0  0
0 0  0
0 0  0
0 0  0
0 0  0
0 0  0
0 0  0
0 0  0
0 0  0
0 0  0
0 0  0
0 0  0
0 0  0
0 0  0
0 0  0
0 0  0
0 0  0
0 0  0
0 0  0
0 0  0
0 0  0
0 0  0
0 0  0
0 0  0
0 0  0
0 0  0
0 0  0
0 0  0
0 0  0
0 0  0
0 0  0
0 0  0
0 0  0
0 0  0
0 0  0
0 0  0
0 0  0
0 0  0
0 0  0
0 0  0
0 0  0
0 0  0
0 0  0
0 0  0
0 0  0
0 0  0
0 0  0
0 0  0
0 0  0
0 0  0
0 0  0
0 0  0
0 0  0
0 0  0
0 0  0
0 0  0
0 0  0
0 0  0
0 0  0
0 0  0
0 0  0
0 0  0
0 0  0
0 0  0
0 0  0
0 0  0
0 0  0
0 0  0
0 0  0
0 0  0
0 0  0
0 0  0
0 0  0
0 0  0
0 0  0
0 0  0
0 0  0
0 0  0
0 0  0
0 0  0
0 0  0
0 0  0
0 0  0
0 0  0
0 0  0
0 0  0
0 0  0
0 0  0
0 0  0
0 0  0
0 0  0
0 0  0
0 0  0
0 0  0
0 0  0
0 0  0
0 0  0
0 0  0
0 0  0
0 0  0
0 0  0
0 0  0
0 0  0
0 0  0
0 0  0
0 0  0
0 0  0
0 0  0
0 0  0
0 0  0
0 0  0
0 0  0
0 0  0
0 0  0
0 0  0
0 0  0
0 0  0
0 0  0
0 0  0
0 0  0
0 0  0
0 0  0
0 0  0
0 0  0
0 0  0
0 0  0
0 0  0
0 0  0
0 0  0
0 0  0
0 0  0
0 0  0
0 0  0
0 0  0
0 0  0
0 0  0
0 0  0
0 0  0
0 0  0
0 0  0
0 0  0
0 0  0
0 0  0
0 0  0
0 0  0
0 0  0
0 0  0
0 0  0
0 0  0
0 0  0
0 0  0
0 0  0
0 0  0
0 0  0
0 0  0
0 0  0
0 0  0
0 0  0
0 0  0
0 0  0
0 0  0
0 0  0
0 0  0
0 0  0
0 0  0
0 0  0
0 0  0
0 0  0
0 0  0
0 0  0
0 0  0
0 0  0
0 0  0
0 0  0
0 0  0
0 0  0
0 0  0
0 0  0
0 0  0
0 0  0
0 0  0
0 0  0
0 0  0
0 0  0
0 0  0
0 0  0
0 0  0
0 0  0
0 0  0
0 0  0
0 0  0
0 0  0
0 0  0
0 0  0
0 0  0
0 0  0
0 0  0
0 0  0
0 0  0
0 0  0
0 0  0
0 0  0
0 0  0
0 0  0
0 0  0
0 0  0
0 0  0
0 0  0
0 0  0
0 0  0
0 0  0
0 0  0
0 0  0
0 0  0
0 0  0
0 0  0
0 0  0
0 0  0
0 0  0
0 0  0
0 0  0
0 0  0
0 0  0
0 0  0
0 0  0
0 0  0
0 0  0
0 0  0
0 0  0
0 0  0
0 0  0
0 0  0
0 0  0
0 0  0
0 0  0
0 0  0
0 0  0
0 0  0
0 0  0
0 0  0
0 0  0
0 0  0
0 0  0
0 0  0
0 0  0
0 0  0
0 0  0
0 0  0
0 0  0
0 0  0
0 0  0
0 0  0
0 0  0
0 0  0
0 0  0
0 0  0
0 0  0
0 0  0
0 0  0
0 0  0
0 0  0
0 0  0
0 0  0
0 0  0
0 0  0
0 0  0
0 0  0
0 0  0
0 0  0
0 0  0
0 0  0
0 0  0
0 0  0
0 0  0
0 0  0
0 0  0
0 0  0
0 0  0
0 0  0
0 0  0
0 0  0
0 0  0
0 0  0
0 0  0
0 0  0
0 0  0
0 0  0
0 0  0
0 0  0
0 0  0

SCALARS pressure double 1
LOOKUP_TABLE default
3.46029
3.45811
3.4539
3.44781
3.44002
3.43076
3.42028
3.40886
3.39679
3.38436
3.37186
3.35956
3.34771
3.33656
3.32629
3.31708
3.30906
3.30234
3.29698
3.29303
3.29051
3.28949
3.28993
3.29183
3.29516
3.29988
3.30591
3.31315
3.32145
3.33065
3.34052
3.35081
3.36124
3.37149
3.38124
3.39017
3.39793
3.40418
3.4086
3.41093
3.25626
3.25402
3.24971
3.24346
3.23548
3.22599
3.21526
3.20357
3.19123
3.17852
3.16574
3.15317
3.14108
3.1297
3.11924
3.10987
3.10173
3.09491
3.08949
3.08549
3.08296
3.08193
3.0824
3.08434
3.08773
3.09254
3.09869
3.10609
3.11459
3.12403
3.13417
3.14477
3.15551
3.16608
3.17615
3.18537
3.19338
3.19984
3.20441
3.20681
3.04829
3.04594
3.0414
3.03484
3.02646
3.01651
3.00527
2.99304
2.98014
2.96687
2.95353
2.94042
2.92783
2.916
2.90515
2.89547
2.88708
2.88008
2.87453
2.87045
2.86788
2.86685
2.86735
2.86937
2.87288
2.87787
2.88426
2.89197
2.90087
2.91078
2.92148
2.93268
2.94407
2.9553
2.96601
2.97581
2.98433
2.99119
2.99604
2.99859
2.83648
2.83395
2.82907
2.82201
2.81301
2.80235
2.79033
2.77728
2.76353
2.74939
2.7352
2.72126
2.70789
2.69538
2.68395
2.6738
2.66505
2.65779
2.65205
2.64787
2.64525
2.64422
2.64477
2.64689
2.65057
2.6558
2.66254
2.67071
2.6802
2.69084
2.70237
2.71452
2.72691
2.73916
2.75085
2.76156
2.77086
2.77835
2.78363
2.7864
2.62097
2.61818
2.61281
2.60506
2.5952
2.58355
2.57047
2.5563
2.54138
2.52606
2.51068
2.4956
2.48117
2.46772
2.45551
2.44473
2.43552
2.42793
2.42198
2.41767
2.41499
2.41396
2.41458
2.41682
2.42071
2.42625
2.43342
2.44219
2.45245
2.46405
2.47675
2.4902
2.50399
2.51766
2.53073
2.5427
2.55309
2.56144
2.56732
2.5704
2.40196
2.39881
2.39277
2.38407
2.37307
2.36013
2.34567
2.33006
2.31366
2.29683
2.27991
2.26333
2.2475
2.23283
2.21962
2.20809
2.19833
2.19037
2.1842
2.17976
2.17704
2.17602
2.17671
2.17909
2.1832
2.18906
2.19673
2.20619
2.2174
2.23023
2.24443
2.2596
2.27525
2.29081
2.30571
2.31935
2.33118
2.34067
2.34734
2.35084
2.17967
2.17603
2.16908
2.15913
2.14663
2.13206
2.11588
2.09851
2.08032
2.06161
2.04277
2.02427
2.00666
1.99045
1.97603
1.96362
1.95328
1.94496
1.93859
1.93407
1.93132
1.93033
1.93109
1.93359
1.93789
1.94408
1.95224
1.96245
1.97476
1.98907
2.00516
2.02256
2.04062
2.05863
2.07588
2.09166
2.10534
2.11629
2.12398
2.128
1.95435
1.95004
1.94186
1.93026
1.91582
1.89919
1.88095
1.86153
1.84126
1.82034
1.79913
1.77819
1.75829
1.74017
1.72434
1.71099
1.7001
1.69151
1.68504
1.6805
1.67779
1.67684
1.67766
1.68024
1.68466
1.69108
1.69966
1.7106
1.72407
1.74012
1.75855
1.7788
1.79999
1.82114
1.84135
1.85983
1.87582
1.88861
1.8976
1.90229
1.72622
1.72097
1.71112
1.6973
1.68035
1.66117
1.64052
1.61885
1.59634
1.57291
1.54884
1.52478
1.50187
1.48137
1.46396
1.44974
1.43849
1.42983
1.42342
1.41901
1.41642
1.41555
1.41639
1.41896
1.42337
1.42983
1.43863
1.45012
1.46471
1.48267
1.50397
1.52794
1.5532
1.57832
1.60223
1.62402
1.64288
1.658
1.66862
1.67417
1.49529
1.48874
1.47663
1.45978
1.43948
1.41717
1.39385
1.36995
1.34528
1.31927
1.29182
1.26361
1.23655
1.21308
1.19407
1.17928
1.16807
1.15972
1.15369
1.1496
1.14724
1.14648
1.1473
1.14972
1.1539
1.16009
1.16871
1.18033
1.19571
1.21559
1.24037
1.26935
1.30001
1.33014
1.35853
1.38429
1.40671
1.42478
1.43751
1.44419
1.26106
1.25282
1.23767
1.21661
1.1917
1.1655
1.1395
1.11391
1.08768
1.05957
1.02834
0.994284
0.960776
0.933639
0.913447
0.898901
0.888509
0.881088
0.875834
0.872325
0.870353
0.869735
0.87046
0.872556
0.876198
0.881646
0.889468
0.900406
0.91573
0.936985
0.96585
1.00221
1.04023
1.07649
1.11004
1.14029
1.16718
1.18914
1.20468
1.2129
1.02214
1.01198
0.993016
0.965909
0.93406
0.903102
0.875029
0.849176
0.82325
0.794639
0.759811
0.717001
0.671328
0.640191
0.620444
0.607906
0.599693
0.594001
0.589995
0.587359
0.585975
0.585543
0.586064
0.587599
0.590356
0.594492
0.600658
0.609552
0.622985
0.643735
0.67661
0.725861
0.774197
0.817327
0.856168
0.89071
0.923544
0.950948
0.970267
0.98064
0.776283
0.764716
0.741625
0.705359
0.661141
0.624821
0.597083
0.573996
0.552061
0.5267
0.490605
0.43514
0.359653
0.327711
0.313096
0.305982
0.302135
0.298885
0.2964
0.294972
0.294444
0.294268
0.294438
0.295098
0.2967
0.298975
0.302645
0.307605
0.315757
0.331032
0.363577
0.442272
0.504469
0.552901
0.596254
0.632005
0.674583
0.70996
0.733909
0.747003
0.522407
0.511411
0.485506
0.435403
0.362643
0.323847
0.302965
0.28819
0.275105
0.25957
0.230949
0.16628
-0.00274929
-0.0102016
-0.00919914
-0.00572052
-0.0018464
-0.00303808
-0.00447055
-0.00423539
-0.00344713
-0.00323625
-0.00359485
-0.00450926
-0.00384465
-0.00399567
-0.00267377
-0.00368027
-0.00541912
-0.00589513
-0.00220431
0.166134
0.239359
0.283525
0.332724
0.354137
0.421014
0.467621
0.49481
0.509898
0.263522
0.256488
0.234283
0.173495
0.021501
0.00122672
-0.00266696
-0.00540857
-0.00661971
-0.00396839
0.00105997
-0.0034829
0
0
0
0
0
0
0
0
0
0
0
0
0
0
0
0
0
0
0
-0.0225272
-0.00495823
0.00252767
0.0884412
0.0184421
0.177373
0.230943
0.251169
0.264888
0.00288226
0.00246585
0.00765278
0.00298656
0
0
0
0
0
0
0
0
0
0
0
0
0
0
0
0
0
0
0
0
0
0
0
0
0
0
0
0
0
0
0
0
0.0317249
0.0232396
0.00563684
0.00786796
0
0
0
0
0
0
0
0
0
0
0
0
0
0
0
0
0
0
0
0
0
0
0
0
0
0
0
0
0
0
0
0
0
0
0
0
0
0
0
0
0
0
0
0
0
0
0
0
0
0
0
0
0
0
0
0
0
0
0
0
0
0
0
0
0
0
0
0
0
0
0
0
0
0
0
0
0
0
0
0
0
0
0
0
0
0
0
0
0
0
0
0
0
0
0
0
0
0
0
0
0
0
0
0
0
0
0
0
0
0
0
0
0
0
0
0
0
0
0
0
0
0
0
0
0
0
0
0
0
0
0
0
0
0
0
0
0
0
0
0
0
0
0
0
0
0
0
0
0
0
0
0
0
0
0
0
0
0
0
0
0
0
0
0
0
0
0
0
0
0
0
0
0
0
0
0
0
0
0
0
0
0
0
0
0
0
0
0
0
0
0
0
0
0
0
0
0
0
0
0
0
0
0
0
0
0
0
0
0
0
0
0
0
0
0
0
0
0
0
0
0
0
0
0
0
0
0
0
0
0
0
0
0
0
0
0
0
0
0
0
0
0
0
0
0
0
0
0
0
0
0
0
0
0
0
0
0
0
0
0
0
0
0
0
0
0
0
0
0
0
0
0
0
0
0
0
0
0
0
0
0
0
0
0
0
0
0
0
0
0
0
0
0
0
0
0
0
0
0
0
0
0
0
0
0
0
0
0
0
0
0
0
0
0
0
0
0
0
0
0
0
0
0
0
0
0
0
0
0
0
0
0
0
0
0
0
0
0
0
0
0
0
0
0
0
0
0
0
0
0
0
0
0
0
0
0
0
0
0
0
0
0
0
0
0
0
0
0
0
0
0
0
0
0
0
0
0
0
0
0
0
0
0
0
0
0
0
0
0
0
0
0
0
0
0
0
0
0
0
0
0
0
0
0
0
0
0
0
0
0
0
0
0
0
0
0
0
0
0
0
0
0
0
0
0
0
0
0
0
0
0
0
0
0
0
0
0
0
0
0
0
0
0
0
0
0
0
0
0
0
0
0
0
0
0
0
0
0
0
0
0
0
0
0
0
0
0
0
0
0
0
0
0
0
0
0
0
0
0
0
0
0
0
0
0
0
0
0
0
0
0
0
0
0
0
0
0
0
0
0
0
0
0
0
0
0
0
0
0
0
0
0
0
0
0
0
0
0
0
0
0
0
0
0
0
0
0
0
0
0
0
0
0
0
0
0
0
0
0
0
0
0
0
0
0
0
0
0
0
0
0
0
0
0
0
0
0
0
0
0
SCALARS rhs double 1
LOOKUP_TABLE default
-5.27944
-5.22123
-5.21889
-5.21682
-5.21475
-5.21275
-5.21091
-5.20929
-5.20793
-5.20686
-5.20607
-5.20555
-5.20527
-5.20519
-5.20526
-5.20546
-5.20574
-5.20604
-5.20629
-5.20645
-5.20585
-5.20599
-5.20616
-5.20588
-5.20558
-5.2053
-5.20505
-5.20484
-5.20465
-5.20448
-5.20431
-5.20419
-5.2042
-5.20448
-5.20523
-5.20666
-5.20894
-5.21193
-5.215
-5.21899
-0.221648
-0.166575
-0.165438
-0.164462
-0.163391
-0.162323
-0.161354
-0.160562
-0.159996
-0.159723
-0.159639
-0.159722
-0.159961
-0.160322
-0.160775
-0.161287
-0.161817
-0.162316
-0.162725
-0.162989
-0.162443
-0.162636
-0.162822
-0.162518
-0.162169
-0.161812
-0.161467
-0.161136
-0.160811
-0.160486
-0.160167
-0.159891
-0.159746
-0.15982
-0.160483
-0.161973
-0.164461
-0.167777
-0.171202
-0.175464
-0.218332
-0.165581
-0.164498
-0.163545
-0.162479
-0.1614
-0.16041
-0.159599
-0.159011
-0.158776
-0.158682
-0.158744
-0.15896
-0.159302
-0.159737
-0.160238
-0.160763
-0.16126
-0.161666
-0.161919
-0.161311
-0.16149
-0.161657
-0.161319
-0.160947
-0.160585
-0.16025
-0.159941
-0.159645
-0.159353
-0.159074
-0.158847
-0.158772
-0.15889
-0.159658
-0.161268
-0.163851
-0.167207
-0.170618
-0.174943
-0.21535
-0.165302
-0.164284
-0.163351
-0.162271
-0.161148
-0.160097
-0.159218
-0.158565
-0.158365
-0.158204
-0.158203
-0.158362
-0.158652
-0.159045
-0.159511
-0.160011
-0.16049
-0.160876
-0.161101
-0.160409
-0.160555
-0.160706
-0.160328
-0.159939
-0.159582
-0.159272
-0.159002
-0.158754
-0.158516
-0.158299
-0.158153
-0.158187
-0.158402
-0.159341
-0.161144
-0.163887
-0.167324
-0.170733
-0.175182
-0.212693
-0.165672
-0.164749
-0.163849
-0.162742
-0.161534
-0.160361
-0.159342
-0.158551
-0.158407
-0.158069
-0.15794
-0.157987
-0.158176
-0.15848
-0.158868
-0.159303
-0.159724
-0.160057
-0.160228
-0.159448
-0.159526
-0.159681
-0.159279
-0.158894
-0.158568
-0.158307
-0.158097
-0.157917
-0.157754
-0.157623
-0.157587
-0.157774
-0.158132
-0.159301
-0.161369
-0.164332
-0.16789
-0.171316
-0.175959
-0.21105
-0.167276
-0.166494
-0.165645
-0.164485
-0.163116
-0.161704
-0.160408
-0.159351
-0.159308
-0.158571
-0.158198
-0.15803
-0.158026
-0.15815
-0.158372
-0.158656
-0.158943
-0.159159
-0.159235
-0.158393
-0.158347
-0.158561
-0.158181
-0.157857
-0.157613
-0.157443
-0.157327
-0.157244
-0.157182
-0.157171
-0.157292
-0.157691
-0.158219
-0.159676
-0.162073
-0.16531
-0.169021
-0.172472
-0.177386
-0.211828
-0.171313
-0.170712
-0.169921
-0.168647
-0.166965
-0.165077
-0.163231
-0.162109
-0.161415
-0.160266
-0.159438
-0.158875
-0.158502
-0.15827
-0.158157
-0.15814
-0.158165
-0.158165
-0.158091
-0.157241
-0.157026
-0.157392
-0.157127
-0.156963
-0.156884
-0.156871
-0.156907
-0.156979
-0.157082
-0.157269
-0.157652
-0.158393
-0.159085
-0.160891
-0.163675
-0.167192
-0.171022
-0.174448
-0.179688
-0.217954
-0.180255
-0.17978
-0.178961
-0.177402
-0.175058
-0.172191
-0.169236
-0.168086
-0.166188
-0.16408
-0.162424
-0.161145
-0.160078
-0.159157
-0.158416
-0.15788
-0.157477
-0.157139
-0.156864
-0.156075
-0.155689
-0.156335
-0.156314
-0.156457
-0.156658
-0.156909
-0.157216
-0.157601
-0.158047
-0.158637
-0.159558
-0.160978
-0.161813
-0.16411
-0.167338
-0.171023
-0.174747
-0.177893
-0.183433
-0.235314
-0.198925
-0.198161
-0.196934
-0.194618
-0.190787
-0.185805
-0.180585
-0.1801
-0.17506
-0.171261
-0.168104
-0.165629
-0.163301
-0.161076
-0.159243
-0.157949
-0.157022
-0.15625
-0.15572
-0.155055
-0.154538
-0.155592
-0.15595
-0.156592
-0.157191
-0.157902
-0.158726
-0.159862
-0.161111
-0.162578
-0.164649
-0.167548
-0.168639
-0.171903
-0.17572
-0.179247
-0.18225
-0.184425
-0.190081
-0.274178
-0.235378
-0.233041
-0.230408
-0.226352
-0.219102
-0.209388
-0.199875
-0.199599
-0.189453
-0.18278
-0.176801
-0.172935
-0.168603
-0.164052
-0.160391
-0.158105
-0.156938
-0.155763
-0.154797
-0.154251
-0.15368
-0.155192
-0.156034
-0.157394
-0.158294
-0.159839
-0.161519
-0.16451
-0.167483
-0.170593
-0.174912
-0.180861
-0.182978
-0.188638
-0.193528
-0.196336
-0.197639
-0.197642
-0.203256
-0.346168
-0.298038
-0.291966
-0.286555
-0.279956
-0.264819
-0.244282
-0.233925
-0.2189
-0.20905
-0.197887
-0.185451
-0.182773
-0.17666
-0.168442
-0.161494
-0.157313
-0.157226
-0.15618
-0.154009
-0.153607
-0.152926
-0.154863
-0.156342
-0.158561
-0.158766
-0.161682
-0.163998
-0.171316
-0.176672
-0.18162
-0.190081
-0.201673
-0.207739
-0.218789
-0.22604
-0.227461
-0.226997
-0.224414
-0.231724
-0.44437
-0.381119
-0.372537
-0.364843
-0.359667
-0.324661
-0.281089
-0.262777
-0.235656
-0.230176
-0.215542
-0.184829
-0.19076
-0.189505
-0.176958
-0.163745
-0.15421
-0.157289
-0.158445
-0.153054
-0.153858
-0.152128
-0.154273
-0.156952
-0.159732
-0.157287
-0.160886
-0.162837
-0.178229
-0.18245
-0.185056
-0.204051
-0.223029
-0.239383
-0.259266
-0.271628
-0.269976