# vtk DataFile Version 4.0
Nusif Fluid VTK output
ASCII
DATASET STRUCTURED_POINTS
DIMENSIONS 40 30 1
ORIGIN 0 0 0 
SPACING 0.2 0.2 1
POINT_DATA 1200 

VECTORS velocity double
-0.00399597 0.00335121  0
-0.0118577 0.0032735  0
-0.0194288 0.00311417  0
-0.0265983 0.00287365  0
-0.0332087 0.0025565  0
-0.0391166 0.00217204  0
-0.0442001 0.0017329  0
-0.048364 0.00125287  0
-0.0515395 0.000744696  0
-0.0536807 0.000218676  0
-0.0547594 -0.000317875  0
-0.0547591 -0.000860236  0
-0.0536717 -0.00140519  0
-0.0514952 -0.00194933  0
-0.0482368 -0.00248701  0
-0.0439196 -0.00300813  0
-0.0385928 -0.00349639  0
-0.0323446 -0.00392918  0
-0.0253122 -0.00428016  0
-0.0176842 -0.00452432  0
-0.00969069 -0.0046449  0
-0.00158163 -0.00463911  0
0.00640357 -0.0045201  0
0.0140634 -0.00431269  0
0.02125 -0.00404571  0
0.0278702 -0.00374509  0
0.033876 -0.00342998  0
0.0392491 -0.00311109  0
0.0439836 -0.00278992  0
0.0480663 -0.00245785  0
0.051454 -0.00209347  0
0.0540444 -0.00165923  0
0.0556426 -0.00110001  0
0.055931 -0.000348201  0
0.054462 0.000658506  0
0.0507028 0.00194293  0
0.0441583 0.00344449  0
0.0345702 0.00498712  0
0.0221348 0.00629224  0
0.00763227 0.00705431  0
-0.0040794 0.0101915  0
-0.01211 0.00995723  0
-0.0198498 0.0094762  0
-0.0271797 0.00874767  0
-0.0339339 0.00778521  0
-0.0399617 0.00661809  0
-0.045138 0.00528633  0
-0.0493677 0.00383312  0
-0.0525856 0.00229798  0
-0.0547509 0.000712107  0
-0.0558405 -0.000903035  0
-0.0558414 -0.00253444  0
-0.0547461 -0.00417402  0
-0.05255 -0.00581331  0
-0.0492547 -0.00743692  0
-0.0448749 -0.0090153  0
-0.0394517 -0.0104991  0
-0.0330675 -0.0118182  0
-0.0258599 -0.0128898  0
-0.0180266 -0.0136341  0
-0.00981512 -0.0139972  0
-0.00149713 -0.0139699  0
0.00666808 -0.0135945  0
0.0144669 -0.0129504  0
0.0217487 -0.0121284  0
0.0284251 -0.0112094  0
0.0344566 -0.0102517  0
0.0398336 -0.00928657  0
0.0445569 -0.00831746  0
0.0486172 -0.00731683  0
0.0519721 -0.00621877  0
0.0545168 -0.00490905  0
0.0560514 -0.00322145  0
0.0562538 -0.000954517  0
0.0546775 0.00207449  0
0.0508011 0.00592801  0
0.044152 0.0104193  0
0.0344988 0.0150206  0
0.0220558 0.0189046  0
0.00759866 0.0211689  0
-0.00425549 0.0173496  0
-0.0126408 0.0169577  0
-0.0207327 0.0161466  0
-0.0283945 0.0149082  0
-0.0354418 0.0132654  0
-0.0417093 0.0112724  0
-0.0470653 0.00900334  0
-0.0514175 0.00653678  0
-0.0547095 0.0039427  0
-0.0569126 0.00127407  0
-0.0580147 -0.0014353  0
-0.0580103 -0.00416778  0
-0.0568934 -0.00691527  0
-0.0546543 -0.00966951  0
-0.0512828 -0.0124099  0
-0.0467773 -0.0150898  0
-0.0411616 -0.0176255  0
-0.0345066 -0.0198929  0
-0.0269505 -0.0217404  0
-0.018709 -0.0230196  0
-0.0100644 -0.0236284  0
-0.00133212 -0.0235492  0
0.00718911 -0.0228613  0
0.0152619 -0.0217142  0
0.0227315 -0.0202744  0
0.0295194 -0.0186856  0
0.0356027 -0.0170473  0
0.0409882 -0.0154097  0
0.0456893 -0.0137742  0
0.0497039 -0.0120898  0
0.0529903 -0.0102412  0
0.0554386 -0.00803299  0
0.05684 -0.0051863  0
0.0568654 -0.00136965  0
0.0550717 0.00370772  0
0.0509621 0.0101294  0
0.0441101 0.0175678  0
0.0343372 0.025147  0
0.0218894 0.0315179  0
0.00752946 0.0352213  0
-0.0045496 0.0249865  0
-0.0135248 0.0244354  0
-0.0221946 0.0232753  0
-0.0303892 0.0214806  0
-0.0378912 0.019087  0
-0.0445142 0.0161856  0
-0.0501213 0.0128973  0
-0.0546293 0.00934666  0
-0.0580011 0.00563985  0
-0.0602301 0.00185199  0
-0.0613237 -0.00197485  0
-0.0612884 -0.00582545  0
-0.0601205 -0.0097002  0
-0.0578024 -0.0135997  0
-0.0543059 -0.0175056  0
-0.0496052 -0.0213582  0
-0.0436988 -0.0250369  0
-0.0366403 -0.0283526  0
-0.0285687 -0.0310656  0
-0.019726 -0.0329354  0
-0.0104457 -0.0337938  0
-0.00110678 -0.0336111  0
0.00793477 -0.0325177  0
0.0164088 -0.0307595  0
0.0241564 -0.0286004  0
0.0311141 -0.0262587  0
0.0372813 -0.0238775  0
0.0426864 -0.0215221  0
0.0473578 -0.0191855  0
0.0513003 -0.0167861  0
0.0544717 -0.0141526  0
0.0567557 -0.0110031  0
0.0579327 -0.0069432  0
0.0576654 -0.00151865  0
0.055521 0.00564728  0
0.0510462 0.0146271  0
0.0438918 0.0249296  0
0.0339629 0.0353403  0
0.0215518 0.044037  0
0.0073949 0.0490723  0
-0.00502579 0.0334034  0
-0.0149467 0.0326815  0
-0.0245168 0.03112  0
-0.0335016 0.0286659  0
-0.0416344 0.0253869  0
-0.0487098 0.021434  0
-0.0545983 0.0169941  0
-0.0592435 0.0122521  0
-0.0626462 0.00735726  0
-0.0648385 0.00240392  0
-0.0658577 -0.0025664  0
-0.065727 -0.00755264  0
-0.0644446 -0.0125762  0
-0.0619812 -0.0176584  0
-0.0582855 -0.0227923  0
-0.0533012 -0.0279096  0
-0.0469968 -0.0328493  0
-0.0394061 -0.0373424  0
-0.0306704 -0.0410357  0
-0.0210646 -0.0435661  0
-0.0109838 -0.0446761  0
-0.000882738 -0.0443202  0
0.0088155 -0.0426992  0
0.0178046 -0.0401915  0
0.0259226 -0.0371838  0
0.0331228 -0.0339822  0
0.0394274 -0.0307742  0
0.0448829 -0.0276337  0
0.0495269 -0.0245362  0
0.0533654 -0.0213625  0
0.0563524 -0.0178799  0
0.0583632 -0.0137152  0
0.0591696 -0.00835846  0
0.0584347 -0.00124435  0
0.0557523 0.00805693  0
0.050744 0.0195582  0
0.0431834 0.0325715  0
0.0331031 0.0455658  0
0.0208571 0.0563269  0
0.00712907 0.0625252  0
-0.00583285 0.0431145  0
-0.0173289 0.0421684  0
-0.0283224 0.0400538  0
-0.0384508 0.0367021  0
-0.0473908 0.03228  0
-0.0549557 0.027037  0
-0.0610651 0.0212442  0
-0.0657255 0.0151622  0
-0.0690093 0.00898748  0
-0.071012 0.00282198  0
-0.0718128 -0.00331171  0
-0.0714533 -0.0094452  0
-0.0699298 -0.0156375  0
-0.0671952 -0.0219433  0
-0.0631711 -0.0283755  0
-0.0577709 -0.0348593  0
-0.0509365 -0.0411866  0
-0.0426883 -0.0469921  0
-0.0331757 -0.0517821  0
-0.0227084 -0.0550404  0
-0.01174 -0.0563983  0
-0.000792788 -0.0557931  0
0.00965169 -0.0535154  0
0.0192563 -0.0501147  0
0.0278562 -0.0461237  0
0.035414 -0.0419447  0
0.0419602 -0.0378063  0
0.0475408 -0.0337807  0
0.0521829 -0.0298174  0
0.0558775 -0.0257557  0
0.0585647 -0.0213015  0
0.0601145 -0.015994  0
0.0603036 -0.00921412  0
0.0588154 -0.000303982  0
0.0553033 0.0111732  0
0.0495177 0.0250987  0
0.0414312 0.0405411  0
0.0312719 0.055699  0
0.0194731 0.0681018  0
0.00661442 0.0752003  0
-0.00729372 0.0551055  0
-0.021574 0.0537503  0
-0.0349028 0.0506581  0
-0.0466592 0.0458459  0
-0.0565149 0.0397946  0
-0.0644526 0.0328869  0
-0.070541 0.0254532  0
-0.0749085 0.0178415  0
-0.0777536 0.0102964  0
-0.0792722 0.002893  0
-0.079594 -0.00440205  0
-0.0787699 -0.0116809  0
-0.0767796 -0.0190584  0
-0.0735481 -0.0266316  0
-0.0689687 -0.0344339  0
-0.0629355 -0.0423776  0
-0.0553854 -0.050196  0
-0.0463483 -0.0574111  0
-0.0359949 -0.0633719  0
-0.0246627 -0.0673927  0
-0.0128333 -0.0689861  0
-0.00105281 -0.0680748  0
0.0101766 -0.065049  0
0.0205045 -0.0606543  0
0.0297564 -0.0555763  0
0.0378777 -0.0503109  0
0.0448691 -0.0451166  0
0.0507323 -0.0400524  0
0.055443 -0.035036  0
0.058944 -0.0298693  0
0.0611472 -0.024214  0
0.0619247 -0.0175436  0
0.0610861 -0.00914892  0
0.0583785 0.00169333  0
0.0535671 0.0153669  0
0.0466138 0.031512  0
0.0378204 0.0488761  0
0.0277308 0.0654818  0
0.0168871 0.0788303  0
0.00566863 0.0864176  0
-0.0100649 0.0713413  0
-0.0294883 0.0690311  0
-0.0467687 0.0638575  0
-0.0607543 0.0562589  0
-0.0713548 0.0477072  0
-0.0791955 0.0386208  0
-0.0846922 0.0291716  0
-0.0881513 0.0198159  0
-0.0899795 0.0108604  0
-0.0905285 0.00226087  0
-0.089969 -0.00614423  0
-0.0883228 -0.0145461  0
-0.0855159 -0.0231279  0
-0.0814235 -0.032024  0
-0.0759139 -0.0412685  0
-0.0688927 -0.0507355  0
-0.0603406 -0.0600783  0
-0.0503456 -0.0686989  0
-0.0391213 -0.0757996  0
-0.027008 -0.080548  0
-0.0144441 -0.0823615  0
-0.00191048 -0.0811504  0
0.0101391 -0.0773889  0
0.0213671 -0.0720061  0
0.0315708 -0.0658154  0
0.0406244 -0.0593815  0
0.0484287 -0.0529757  0
0.0548729 -0.0466339  0
0.0598135 -0.0402382  0
0.0630857 -0.033572  0
0.0645385 -0.0262981  0
0.064059 -0.0178873  0
0.0615515 -0.00758792  0
0.0569059 0.00535768  0
0.0500644 0.0212283  0
0.0412891 0.0392527  0
0.0314242 0.0576678  0
0.0215627 0.0745156  0
0.0124305 0.087647  0
0.00405048 0.0950739  0
-0.0153537 0.0956507  0
-0.0443157 0.0909371  0
-0.0683166 0.0811108  0
-0.0851228 0.0676747  0
-0.0955634 0.0552087  0
-0.10216 0.0434315  0
-0.105968 0.0315392  0
-0.107437 0.020248  0
-0.10732 0.0100102  0
-0.106208 0.000417995  0
-0.104249 -0.0089514  0
-0.101332 -0.0184338  0
-0.0972458 -0.0282657  0
-0.0917747 -0.0385825  0
-0.0847703 -0.0493569  0
-0.0762079 -0.0603637  0
-0.0662004 -0.0711425  0
-0.0549719 -0.080991  0
-0.0427991 -0.0890372  0
-0.0299698 -0.0943853  0
-0.0167603 -0.0964296  0
-0.00346716 -0.0950408  0
0.00957463 -0.0907212  0
0.0220674 -0.0845254  0
0.0337506 -0.0773134  0
0.0443516 -0.069668  0
0.0535857 -0.0618568  0
0.0611446 -0.0538843  0
0.0666702 -0.0455817  0
0.0697786 -0.0367357  0
0.0701633 -0.0270975  0
0.0677366 -0.0163062  0
0.0626352 -0.00368372  0
0.0550651 0.0115467  0
0.0451823 0.029642  0
0.0334986 0.0491771  0
0.0217308 0.0672561  0
0.0120154 0.0823846  0
0.00546205 0.0933441  0
0.00151738 0.0995819  0
-0.0250574 0.134967  0
-0.0707429 0.124117  0
-0.105518 0.104593  0
-0.125403 0.0787684  0
-0.13358 0.0606152  0
-0.136979 0.0459021  0
-0.137317 0.0310946  0
-0.135139 0.0178614  0
-0.13185 0.00686652  0
-0.128303 -0.00322141  0
-0.124435 -0.0132657  0
-0.119806 -0.0237912  0
-0.113923 -0.0350049  0
-0.106417 -0.0469482  0
-0.0971364 -0.0594037  0
-0.0862182 -0.0719251  0
-0.0740405 -0.0838939  0
-0.0610705 -0.0945658  0
-0.0476472 -0.103186  0
-0.0339058 -0.108935  0
-0.0197996 -0.111323  0
-0.00534236 -0.110025  0
0.00923532 -0.105483  0
0.0236924 -0.0988393  0
0.0377132 -0.0908289  0
0.0508091 -0.0819743  0
0.0624315 -0.0725311  0
0.0720182 -0.0624792  0
0.078895 -0.051512  0
0.082243 -0.0393834  0
0.0813394 -0.0260516  0
0.0760865 -0.0117918  0
0.0671812 0.00369025  0
0.0556042 0.0212029  0
0.0416423 0.0417147  0
0.0253195 0.0629959  0
0.00973179 0.0786786  0
-0.000726464 0.0890221  0
-0.00416689 0.0945871  0
-0.0020196 0.0980229  0
-0.0419201 0.200864  0
-0.113025 0.172876  0
-0.160806 0.136283  0
-0.182423 0.0864726  0
-0.186462 0.0630175  0
-0.185641 0.0439653  0
-0.180003 0.0256172  0
-0.172479 0.0115215  0
-0.16548 0.000798961  0
-0.159207 -0.00909288  0
-0.153159 -0.0194312  0
-0.146471 -0.0310641  0
-0.138239 -0.0439691  0
-0.127899 -0.0579526  0
-0.115302 -0.0723997  0
-0.100858 -0.0864137  0
-0.0853927 -0.0991706  0
-0.0697722 -0.110002  0
-0.0543585 -0.118709  0
-0.0389861 -0.124647  0
-0.0230734 -0.127751  0
-0.0063278 -0.126921  0
0.0108643 -0.122477  0
0.0283722 -0.115931  0
0.0459836 -0.10749  0
0.0629346 -0.0974803  0
0.0783374 -0.0861697  0
0.0914242 -0.0736329  0
0.101172 -0.059101  0
0.105979 -0.0420659  0
0.104089 -0.0226918  0
0.0951778 -0.00310212  0
0.0810707 0.0158999  0
0.0647862 0.0347433  0
0.0467023 0.0581096  0
0.0229834 0.0845333  0
-0.000977015 0.094581  0
-0.0147923 0.095286  0
-0.0155345 0.0903991  0
-0.00626376 0.0886859  0
-0.0709176 0.312636  0
-0.16757 0.226746  0
-0.210213 0.170739  0
-0.227451 0.0887714  0
-0.237784 0.072989  0
-0.240425 0.0337086  0
-0.225064 0.0127657  0
-0.21452 0.00419508  0
-0.208476 -0.00703176  0
-0.200983 -0.0171426  0
-0.192797 -0.0277312  0
-0.183534 -0.0408327  0
-0.172147 -0.0559361  0
-0.157918 -0.0726717  0
-0.14058 -0.0897342  0
-0.120925 -0.105295  0
-0.100489 -0.118308  0
-0.0808588 -0.128233  0
-0.0623531 -0.136514  0
-0.0443013 -0.142383  0
-0.0252471 -0.147098  0
-0.00460043 -0.147083  0
0.0163969 -0.142622  0
0.0380603 -0.137074  0
0.0608651 -0.128879  0
0.0835877 -0.11788  0
0.104694 -0.104394  0
0.123377 -0.089292  0
0.138529 -0.0704552  0
0.147499 -0.0466009  0
0.146279 -0.017159  0
0.133626 0.0108195  0
0.11247 0.0351343  0
0.0908907 0.0512663  0
0.0725333 0.0759231  0
0.0381673 0.122701  0
-0.00446003 0.120899  0
-0.0270957 0.103319  0
-0.0265632 0.0804763  0
-0.0103488 0.0710229  0
-0.0456791 0.428704  0
-0.099847 0.260446  0
-0.119203 0.197991  0
-0.157385 0.11589  0
-0.235146 0.132916  0
-0.262941 0.00264048  0
-0.233888 -0.00268485  0
-0.24326 0.0163683  0
-0.258157 -0.0124611  0
-0.252476 -0.0269972  0
-0.241544 -0.0391069  0
-0.228074 -0.0543035  0
-0.212165 -0.0718733  0
-0.192753 -0.0924879  0
-0.16878 -0.113342  0
-0.141724 -0.13051  0
-0.11432 -0.143045  0
-0.089519 -0.15004  0
-0.0674924 -0.157352  0
-0.0466893 -0.162513  0
-0.0242937 -0.170531  0
0.000672416 -0.171375  0
0.0250831 -0.165849  0
0.0507834 -0.163322  0
0.0802467 -0.15701  0
0.11127 -0.145606  0
0.140486 -0.129102  0
0.167178 -0.112069  0
0.190948 -0.0887094  0
0.208483 -0.0569598  0
0.211213 -0.0104184  0
0.196649 0.0291908  0
0.164015 0.0684508  0
0.127551 0.0738923  0
0.117166 0.079941  0
0.0803876 0.187728  0
0.0102965 0.166492  0
-0.0300015 0.119087  0
-0.0327752 0.0659015  0
-0.0122952 0.0478544  0
0.0570451 0.237191  0
0.0329152 0.134467  0
-0.0563382 0.104429  0
-0.144637 0.0716024  0
-0.172934 0.0814118  0
-0.12101 -0.0205392  0
-0.148649 0.0180298  0
-0.244255 0.09958  0
-0.308335 -0.0182764  0
-0.298533 -0.0387735  0
-0.282581 -0.0563233  0
-0.262214 -0.0730333  0
-0.24143 -0.0919443  0
-0.216601 -0.118767  0
-0.18451 -0.145235  0
-0.148968 -0.163322  0
-0.114509 -0.174203  0
-0.085682 -0.174617  0
-0.0622709 -0.18032  0
-0.0412806 -0.183445  0
-0.0186152 -0.196766  0
0.00708024 -0.197908  0
0.0309286 -0.189682  0
0.0577768 -0.194144  0
0.0932217 -0.193202  0
0.133845 -0.183167  0
0.172519 -0.161537  0
0.208643 -0.144556  0
0.24347 -0.116924  0
0.275079 -0.0799941  0
0.282652 0.000207991  0
0.268086 0.0455933  0
0.220207 0.130463  0
0.120097 0.146882  0
0.043705 0.0926816  0
0.0244335 0.229988  0
0.0224002 0.195308  0
0.0268844 0.162677  0
0.0144678 0.0288583  0
-0.00121648 0.0177796  0
0 0  0
0 0  0
0 0  0
0 0  0
-0.0605051 -0.0102696  0
-0.154114 -0.0102696  0
-0.242692 0.0228345  0
-0.292928 0.0724281  0
-0.28769 -0.0226902  0
-0.286771 -0.0466627  0
-0.27245 -0.0808132  0
-0.249012 -0.0944535  0
-0.229617 -0.112806  0
-0.203482 -0.150973  0
-0.166646 -0.184058  0
-0.128139 -0.200651  0
-0.0932169 -0.208358  0
-0.0654807 -0.199128  0
-0.0444702 -0.202333  0
-0.0266807 -0.202314  0
-0.00892944 -0.220416  0
0.0102544 -0.221239  0
0.028904 -0.210951  0
0.0531281 -0.22605  0
0.0885159 -0.234232  0
0.132032 -0.22838  0
0.174798 -0.199866  0
0.216424 -0.18608  0
0.258972 -0.154877  0
0.307965 -0.124745  0
0.308823 0.0344265  0
0.258448 0.0742154  0
0.2357 0.170894  0
0.19638 0.188465  0
0.0307121 0.0549599  0
-0.0182607 0.116011  0
0.0407569 0.0976541  0
0.0112001 0.0976541  0
0 0  0
0 0  0
0 0  0
0 0  0
0 0  0
0 0  0
0 0  0
0 0  0
0 0  0
-0.143845 -0.0113451  0
-0.232681 -0.0353996  0
-0.177671 -0.0481091  0
-0.175861 -0.0965515  0
-0.173086 -0.10598  0
-0.165039 -0.129773  0
-0.145561 -0.180672  0
-0.119787 -0.218019  0
-0.0936064 -0.232428  0
-0.0703252 -0.235834  0
-0.0484598 -0.222303  0
-0.0284695 -0.221208  0
-0.011476 -0.219272  0
0.000915159 -0.234651  0
0.0104401 -0.236763  0
0.0279161 -0.232602  0
0.0521658 -0.253922  0
0.0780833 -0.268715  0
0.106522 -0.266902  0
0.140174 -0.238812  0
0.174085 -0.223721  0
0.201278 -0.188028  0
0.212054 -0.152413  0
0.212059 0.0601826  0
0.213404 0.0964385  0
0.224552 0.133666  0
0.11785 0.0854471  0
0 0  0
0 0  0
0 0  0
0 0  0
0 0  0
0 0  0
0 0  0
0 0  0
0 0  0
0 0  0
0 0  0
0 0  0
0 0  0
0 0  0
-0.0888357 -0.0240545  0
-0.152545 -0.0240545  0
-0.146443 -0.0491812  0
-0.153839 -0.0534717  0
-0.121977 -0.0684278  0
-0.0982897 -0.0965335  0
-0.0937056 -0.115699  0
-0.0861488 -0.122615  0
-0.0760954 -0.123157  0
-0.0567105 -0.116845  0
-0.0314836 -0.114906  0
-0.00705578 -0.113831  0
0.0082278 -0.119326  0
0.0133914 -0.121143  0
0.0398823 -0.122277  0
0.071056 -0.13311  0
0.0858339 -0.141168  0
0.0941772 -0.14086  0
0.118713 -0.128823  0
0.145334 -0.119399  0
0.157415 -0.100072  0
0.0825632 -0.0755367  0
0.0883028 0.0294187  0
0.194603 0.0482193  0
0.106702 0.0482193  0
0 0  0
0 0  0
0 0  0
0 0  0
0 0  0
0 0  0
0 0  0
0 0  0
0 0  0
0 0  0
0 0  0
0 0  0
0 0  0
0 0  0
0 0  0
0 0  0
0 0  0
0 0  0
0 0  0
0 0  0
0 0  0
0 0  0
0 0  0
0 0  0
0 0  0
0 0  0
0 0  0
0 0  0
0 0  0
0 0  0
0 0  0
0 0  0
0 0  0
0 0  0
0 0  0
0 0  0
0 0  0
0 0  0
0 0  0
0 0  0
0 0  0
0 0  0
0 0  0
0 0  0
0 0  0
0 0  0
0 0  0
0 0  0
0 0  0
0 0  0
0 0  0
0 0  0
0 0  0
0 0  0
0 0  0
0 0  0
0 0  0
0 0  0
0 0  0
0 0  0
0 0  0
0 0  0
0 0  0
0 0  0
0 0  0
0 0  0
0 0  0
0 0  0
0 0  0
0 0  0
0 0  0
0 0  0
0 0  0
0 0  0
0 0  0
0 0  0
0 0  0
0 0  0
0 0  0
0 0  0
0 0  0
0 0  0
0 0  0
0 0  0
0 0  0
0 0  0
0 0  0
0 0  0
0 0  0
0 0  0
0 0  0
0 0  0
0 0  0
0 0  0
0 0  0
0 0  0
0 0  0
0 0  0
0 0  0
0 0  0
0 0  0
0 0  0
0 0  0
0 0  0
0 0  0
0 0  0
0 0  0
0 0  0
0 0  0
0 0  0
0 0  0
0 0  0
0 0  0
0 0  0
0 0  0
0 0  0
0 0  0
0 0  0
0 0  0
0 0  0
0 0  0
0 0  0
0 0  0
0 0  0
0 0  0
0 0  0
0 0  0
0 0  0
0 0  0
0 0  0
0 0  0
0 0  0
0 0  0
0 0  0
0 0  0
0 0  0
0 0  0
0 0  0
0 0  0
0 0  0
0 0  0
0 0  0
0 0  0
0 0  0
0 0  0
0 0  0
0 0  0
0 0  0
0 0  0
0 0  0
0 0  0
0 0  0
0 0  0
0 0  0
0 0  0
0 0  0
0 0  0
0 0  0
0 0  0
0 0  0
0 0  0
0 0  0
0 0  0
0 0  0
0 0  0
0 0  0
0 0  0
0 0  0
0 0  0
0 0  0
0 0  0
0 0  0
0 0  0
0 0  0
0 0  0
0 0  0
0 0  0
0 0  0
0 0  0
0 0  0
0 0  0
0 0  0
0 0  0
0 0  0
0 0  0
0 0  0
0 0  0
0 0  0
0 0  0
0 0  0
0 0  0
0 0  0
0 0  0
0 0  0
0 0  0
0 0  0
0 0  0
0 0  0
0 0  0
0 0  0
0 0  0
0 0  0
0 0  0
0 0  0
0 0  0
0 0  0
0 0  0
0 0  0
0 0  0
0 0  0
0 0  0
0 0  0
0 0  0
0 0  0
0 0  0
0 0  0
0 0  0
0 0  0
0 0  0
0 0  0
0 0  0
0 0  0
0 0  0
0 0  0
0 0  0
0 0  0
0 0  0
0 0  0
0 0  0
0 0  0
0 0  0
0 0  0
0 0  0
0 0  0
0 0  0
0 0  0
0 0  0
0 0  0
0 0  0
0 0  0
0 0  0
0 0  0
0 0  0
0 0  0
0 0  0
0 0  0
0 0  0
0 0  0
0 0  0
0 0  0
0 0  0
0 0  0
0 0  0
0 0  0
0 0  0
0 0  0
0 0  0
0 0  0
0 0  0
0 0  0
0 0  0
0 0  0
0 0  0
0 0  0
0 0  0
0 0  0
0 0  0
0 0  0
0 0  0
0 0  0
0 0  0
0 0  0
0 0  0
0 0  0
0 0  0
0 0  0
0 0  0
0 0  0
0 0  0
0 0  0
0 0  0
0 0  0
0 0  0
0 0  0
0 0  0
0 0  0
0 0  0
0 0  0
0 0  0
0 0  0
0 0  0
0 0  0
0 0  0
0 0  0
0 0  0
0 0  0
0 0  0
0 0  0
0 0  0
0 0  0
0 0  0
0 0  0
0 0  0
0 0  0
0 0  0
0 0  0
0 0  0
0 0  0
0 0  0
0 0  0
0 0  0
0 0  0
0 0  0
0 0  0
0 0  0
0 0  0
0 0  0
0 0  0
0 0  0
0 0  0
0 0  0
0 0  0
0 0  0
0 0  0
0 0  0
0 0  0
0 0  0
0 0  0
0 0  0
0 0  0
0 0  0
0 0  0
0 0  0
0 0  0
0 0  0
0 0  0
0 0  0
0 0  0
0 0  0
0 0  0
0 0  0
0 0  0
0 0  0
0 0  0
0 0  0
0 0  0
0 0  0
0 0  0
0 0  0
0 0  0
0 0  0
0 0  0
0 0  0
0 0  0
0 0  0
0 0  0
0 0  0
0 0  0
0 0  0
0 0  0
0 0  0
0 0  0
0 0  0
0 0  0
0 0  0
0 0  0
0 0  0
0 0  0
0 0  0
0 0  0
0 0  0
0 0  0
0 0  0
0 0  0
0 0  0
0 0  0
0 0  0
0 0  0
0 0  0
0 0  0
0 0  0
0 0  0
0 0  0
0 0  0
0 0  0
0 0  0
0 0  0
0 0  0
0 0  0
0 0  0
0 0  0
0 0  0
0 0  0
0 0  0
0 0  0
0 0  0
0 0  0
0 0  0
0 0  0
0 0  0
0 0  0
0 0  0
0 0  0
0 0  0
0 0  0
0 0  0
0 0  0
0 0  0
0 0  0
0 0  0
0 0  0
0 0  0
0 0  0
0 0  0
0 0  0
0 0  0
0 0  0
0 0  0
0 0  0
0 0  0
0 0  0
0 0  0
0 0  0
0 0  0
0 0  0
0 0  0
0 0  0
0 0  0
0 0  0
0 0  0
0 0  0
0 0  0
0 0  0
0 0  0
0 0  0
0 0  0
0 0  0
0 0  0
0 0  0
0 0  0
0 0  0
0 0  0
0 0  0
0 0  0
0 0  0
0 0  0
0 0  0
0 0  0
0 0  0
0 0  0
0 0  0
0 0  0
0 0  0
0 0  0
0 0  0
0 0  0
0 0  0
0 0  0
0 0  0
0 0  0
0 0  0
0 0  0
0 0  0
0 0  0
0 0  0
0 0  0
0 0  0
0 0  0
0 0  0
0 0  0
0 0  0
0 0  0
0 0  0
0 0  0
0 0  0
0 0  0
0 0  0
0 0  0
0 0  0
0 0  0
0 0  0
0 0  0
0 0  0
0 0  0
0 0  0
0 0  0
0 0  0
0 0  0
0 0  0
0 0  0
0 0  0
0 0  0
0 0  0
0 0  0
0 0  0
0 0  0
0 0  0
0 0  0
0 0  0
0 0  0
0 0  0
0 0  0
0 0  0
0 0  0
0 0  0
0 0  0
0 0  0
0 0  0
0 0  0
0 0  0
0 0  0
0 0  0
0 0  0
0 0  0
0 0  0
0 0  0
0 0  0
0 0  0
0 0  0
0 0  0
0 0  0
0 0  0
0 0  0
0 0  0
0 0  0
0 0  0
0 0  0

SCALARS pressure double 1
LOOKUP_TABLE default
2.32705
2.3289
2.33218
2.33685
2.34278
2.34984
2.35785
2.3666
2.37586
2.38539
2.39497
2.40437
2.41339
2.42185
2.4296
2.4365
2.44245
2.44736
2.45115
2.45378
2.45521
2.45542
2.45445
2.4523
2.449
2.44461
2.4392
2.43289
2.42578
2.41805
2.40987
2.40146
2.39307
2.38499
2.37749
2.37085
2.36532
2.36109
2.35826
2.35688
2.1296
2.13146
2.1348
2.13955
2.14562
2.15285
2.16105
2.17001
2.17949
2.18923
2.199
2.20857
2.21774
2.22631
2.23414
2.24111
2.2471
2.25203
2.25583
2.25845
2.25986
2.26005
2.25905
2.25685
2.25349
2.24903
2.24353
2.23709
2.22984
2.22192
2.21352
2.20487
2.19621
2.18784
2.18005
2.17314
2.16736
2.16293
2.15996
2.1585
1.93424
1.93614
1.93961
1.94457
1.95093
1.95853
1.96716
1.97657
1.98652
1.99671
2.0069
2.01684
2.02631
2.03514
2.04316
2.05027
2.05635
2.06134
2.06517
2.0678
2.0692
2.06935
2.0683
2.06604
2.06258
2.05799
2.05231
2.04565
2.0381
2.02982
2.021
2.01185
2.00265
1.9937
1.98532
1.97784
1.97154
1.96668
1.9634
1.96178
1.74088
1.74287
1.74653
1.75182
1.75864
1.76681
1.77612
1.78627
1.79695
1.80787
1.81871
1.82923
1.83918
1.84839
1.8567
1.86402
1.87025
1.87533
1.87921
1.88185
1.88324
1.88336
1.88225
1.8799
1.87632
1.87154
1.86562
1.85863
1.85066
1.84184
1.83238
1.82248
1.81244
1.8026
1.79329
1.78491
1.77779
1.77224
1.76847
1.76659
1.5494
1.55148
1.55539
1.56112
1.56858
1.57759
1.58786
1.59906
1.61081
1.62274
1.6345
1.64581
1.65641
1.66613
1.67483
1.68241
1.68882
1.69401
1.69795
1.70061
1.70198
1.70206
1.7009
1.69845
1.69473
1.68975
1.68354
1.67613
1.66761
1.6581
1.64776
1.63685
1.62565
1.61454
1.60394
1.59428
1.58598
1.57944
1.57495
1.57269
1.35962
1.36179
1.36598
1.37224
1.38054
1.39067
1.40228
1.41491
1.4281
1.44139
1.45437
1.4667
1.47812
1.48847
1.49762
1.50551
1.51211
1.51741
1.52139
1.52406
1.52543
1.52548
1.52426
1.52174
1.51789
1.5127
1.50616
1.49829
1.48913
1.47875
1.46732
1.45509
1.44237
1.4296
1.41725
1.40585
1.39593
1.38802
1.38253
1.37975
1.17134
1.17352
1.17794
1.18481
1.19418
1.20581
1.21921
1.23377
1.24887
1.26393
1.27846
1.29206
1.30448
1.31555
1.3252
1.3334
1.34017
1.34554
1.34954
1.3522
1.35355
1.35358
1.35235
1.34979
1.34585
1.34048
1.33365
1.32529
1.3154
1.30403
1.29128
1.2774
1.26276
1.24785
1.23324
1.21955
1.20744
1.19765
1.1908
1.18731
0.984323
0.986326
0.990793
0.998249
1.00894
1.0226
1.03845
1.0556
1.0732
1.09054
1.107
1.12214
1.1357
1.14756
1.1577
1.16616
1.17303
1.17841
1.18238
1.185
1.18632
1.18635
1.18515
1.18261
1.17867
1.17321
1.16614
1.15734
1.14672
1.13424
1.11995
1.10408
1.08704
1.06943
1.05195
1.03531
1.02029
1.00792
0.999213
0.994768
0.798291
0.799603
0.803674
0.811576
0.823959
0.840488
0.859742
0.880342
0.901226
0.921468
0.940299
0.957237
0.972054
0.984706
0.995271
1.00389
1.01075
1.01602
1.01986
1.02239
1.02368
1.02374
1.02262
1.02022
1.01639
1.01098
1.00382
0.994693
0.983411
0.969791
0.953766
0.935496
0.915472
0.894515
0.873508
0.853143
0.834223
0.818232
0.806997
0.801313
0.612688
0.61211
0.614952
0.623032
0.637698
0.658641
0.682782
0.708007
0.733171
0.757098
0.778791
0.79776
0.813864
0.827214
0.838044
0.846635
0.853286
0.858288
0.861892
0.86427
0.865517
0.865644
0.864688
0.862541
0.858999
0.853834
0.846791
0.837578
0.825839
0.811175
0.793265
0.772112
0.748337
0.723191
0.698012
0.673202
0.649
0.627606
0.612983
0.605827
0.425817
0.420721
0.421183
0.429387
0.447422
0.476111
0.507442
0.538655
0.569422
0.597994
0.623094
0.644215
0.661461
0.675248
0.686053
0.694331
0.700531
0.705069
0.708308
0.71047
0.711666
0.71187
0.711146
0.709387
0.706325
0.701652
0.69503
0.686095
0.6743
0.658905
0.639082
0.614419
0.585792
0.555128
0.525393
0.49595
0.464567
0.433978
0.415234
0.406807
0.231735
0.218656
0.216699
0.226081
0.248003
0.292763
0.334446
0.372396
0.410573
0.445169
0.474155
0.497231
0.515118
0.528812
0.539137
0.54674
0.552207
0.55607
0.558819
0.560701
0.561835
0.562096
0.561633
0.560364
0.557979
0.554055
0.548177
0.539999
0.52878
0.51332
0.491842
0.463107
0.427704
0.388671
0.354802
0.322494
0.282123
0.231999
0.210643
0.202738
0.0230235
0.00373465
0.00530445
0.0134943
0.0252954
0.113553
0.167502
0.208394
0.257805
0.3005
0.333505
0.357616
0.374982
0.387647
0.396864
0.403393
0.407887
0.410884
0.413038
0.414569
0.415612
0.415873
0.415613
0.414857
0.413273
0.410281
0.405392
0.39848
0.388626
0.374236
0.352028
0.319202
0.274074
0.218822
0.183201
0.15419
0.110143
0.00430975
-0.00428461
-0.00622721
0
0
0
0
0
-0.0237173
0.0137761
0.034211
0.113318
0.167701
0.203778
0.226605
0.241204
0.25129
0.258589
0.263671
0.267067
0.26909
0.2706
0.271711
0.27262
0.272815
0.272515
0.272157
0.271291
0.269201
0.265411
0.260278
0.252591
0.240759
0.220211
0.185465
0.127539
0.0289516
0.00818015
0.000840873
-0.00230049
0
0
0
0
0
0
0
0
0
0
0
-0.00486081
0.0563459
0.0898645
0.106482
0.11449
0.119594
0.123868
0.127035
0.129257
0.13029
0.131342
0.132037
0.132991
0.132914
0.131999
0.131697
0.131161
0.129747
0.127145
0.124573
0.120116
0.111724
0.0980541
0.0733891
0.0141626
0
0
0
0
0
0
0
0
0
0
0
0
0
0
0
0
-0.0185576
-0.00074674
-0.000313221
-0.00341871
-0.0062637
-0.00678211
-0.0064661
-0.00525753
-0.00570159
-0.00427287
-0.00418828
-0.00196357
-0.00271617
-0.00596678
-0.00616206
-0.00688349
-0.00748192
-0.00947814
-0.00758051
-0.00613292
0.000719256
-0.000343486
-0.00115166
0
0
0
0
0
0
0
0
0
0
0
0
0
0
0
0
0
0
0
0
0
0
0
0
0
0
0
0
0
0
0
0
0
0
0
0
0
0
0
0
0
0
0
0
0
0
0
0
0
0
0
0
0
0
0
0
0
0
0
0
0
0
0
0
0
0
0
0
0
0
0
0
0
0
0
0
0
0
0
0
0
0
0
0
0
0
0
0
0
0
0
0
0
0
0
0
0
0
0
0
0
0
0
0
0
0
0
0
0
0
0
0
0
0
0
0
0
0
0
0
0
0
0
0
0
0
0
0
0
0
0
0
0
0
0
0
0
0
0
0
0
0
0
0
0
0
0
0
0
0
0
0
0
0
0
0
0
0
0
0
0
0
0
0
0
0
0
0
0
0
0
0
0
0
0
0
0
0
0
0
0
0
0
0
0
0
0
0
0
0
0
0
0
0
0
0
0
0
0
0
0
0
0
0
0
0
0
0
0
0
0
0
0
0
0
0
0
0
0
0
0
0
0
0
0
0
0
0
0
0
0
0
0
0
0
0
0
0
0
0
0
0
0
0
0
0
0
0
0
0
0
0
0
0
0
0
0
0
0
0
0
0
0
0
0
0
0
0
0
0
0
0
0
0
0
0
0
0
0
0
0
0
0
0
0
0
0
0
0
0
0
0
0
0
0
0
0
0
0
0
0
0
0
0
0
0
0
0
0
0
0
0
0
0
0
0
0
0
0
0
0
0
0
0
0
0
0
0
0
0
0
0
0
0
0
0
0
0
0
0
0
0
0
0
0
0
0
0
0
0
0
0
0
0
0
0
0
0
0
0
0
0
0
0
0
0
0
0
0
0
0
0
0
0
0
0
0
0
0
0
0
0
0
0
0
0
0
0
0
0
0
0
0
0
0
0
0
0
0
0
0
0
0
0
0
0
0
0
0
0
0
0
0
0
0
0
0
0
0
0
0
0
0
0
0
0
0
0
0
0
0
0
0
0
0
0
0
0
0
0
0
0
0
0
0
0
0
0
0
0
0
0
0
0
0
0
0
0
0
0
0
0
0
0
0
0
0
0
0
0
0
0
0
0
0
0
0
0
0
0
0
0
0
0
0
0
0
0
0
0
0
0
0
0
0
0
0
0
0
0
0
0
0
0
0
0
0
0
0
0
0
0
0
0
0
0
0
0
0
0
0
0
0
0
0
0
0
0
0
0
0
0
0
0
0
0
0
0
0
0
0
0
0
0
0
0
0
0
0
0
0
0
0
0
0
0
0
0
0
0
0
0
0
0
0
0
0
0
SCALARS rhs double 1
LOOKUP_TABLE default
-5.00777
-4.96505
-4.96415
-4.96374
-4.96344
-4.96334
-4.96339
-4.96363
-4.964
-4.96455
-4.96523
-4.96604
-4.96697
-4.968
-4.96911
-4.97027
-4.97142
-4.97251
-4.97344
-4.97412
-4.9745
-4.97392
-4.9742
-4.9739
-4.97328
-4.97254
-4.97176
-4.97095
-4.97014
-4.96934
-4.96854
-4.96775
-4.96701
-4.96643
-4.96618
-4.96651
-4.96771
-4.9698
-4.97229
-4.97564
0.0357445
0.0764546
0.0768377
0.077064
0.0773205
0.0775526
0.0777631
0.0779057
0.0779559
0.0779266
0.0777399
0.077498
0.0771528
0.0767095
0.07618
0.0755695
0.0749205
0.0742876
0.0737421
0.0733668
0.0732206
0.0739858
0.0737191
0.0740008
0.0745317
0.0750945
0.0756486
0.0761719
0.0766578
0.0771083
0.0775293
0.0779217
0.0782626
0.0784767
0.0783887
0.0776773
0.0760486
0.0734754
0.0705297
0.0669221
0.0387891
0.0775648
0.0779093
0.078159
0.0783665
0.0786349
0.0788203
0.0789822
0.079026
0.0789943
0.078792
0.0785348
0.0781981
0.0777506
0.0772094
0.0765856
0.0759073
0.0752412
0.0746699
0.0742838
0.0741559
0.0750576
0.0747489
0.0751132
0.0757114
0.0763293
0.0769247
0.0774785
0.0779865
0.0784527
0.0788837
0.0792797
0.0796172
0.079825
0.0797321
0.0790281
0.077443
0.0749584
0.072125
0.06863
0.0419131
0.0782994
0.0786512
0.0788588
0.0790894
0.0793505
0.0795649
0.0797162
0.0797829
0.0797402
0.0795174
0.0792545
0.0789117
0.0784619
0.0778983
0.0772406
0.0765169
0.0757947
0.0751781
0.0747779
0.0746789
0.0757882
0.075411
0.0758989
0.0765945
0.0772911
0.0779468
0.0785463
0.07909
0.0795845
0.0800357
0.0804438
0.0807872
0.0809957
0.080907
0.0802403
0.078743
0.0763975
0.0737171
0.0703795
0.0451395
0.0787919
0.079124
0.0793185
0.0795978
0.0798759
0.0801374
0.0803132
0.0804072
0.0803861
0.0801247
0.0798749
0.0795326
0.0790742
0.0784884
0.077784
0.0769995
0.0762098
0.0755373
0.075123
0.0750704
0.0764559
0.0759924
0.0766343
0.0774477
0.0782382
0.078968
0.079629
0.0802267
0.0807679
0.081258
0.0816984
0.0820765
0.0823208
0.0822875
0.0817435
0.0804279
0.0782914
0.0757869
0.0726431
0.0479444
0.0786168
0.078953
0.0792519
0.0796249
0.0800065
0.0803552
0.0806255
0.0807841
0.0808219
0.0805099
0.0803019
0.0799778
0.0795155
0.0789104
0.0781687
0.0773299
0.0764821
0.0757685
0.0753594
0.0753773
0.0770762
0.0765329
0.0773142
0.0782386
0.0791174
0.079925
0.0806638
0.0813413
0.0819604
0.0825204
0.0830279
0.0834947
0.0838718
0.0840073
0.0837603
0.0828014
0.0809768
0.0786419
0.0757091
0.0489212
0.0766282
0.0772251
0.0779592
0.0786706
0.0793035
0.0798786
0.0803644
0.0806986
0.0808593
0.0804376
0.0803456
0.0800521
0.0796032
0.0790028
0.0782661
0.0774351
0.076603
0.0759243
0.0755821
0.0756998
0.0776642
0.0770887
0.077895
0.0788625
0.0797841
0.080657
0.0814901
0.0822828
0.0830184
0.0836802
0.0842844
0.0848957
0.0855258
0.0860787
0.0864014
0.086096
0.0847596
0.0825756
0.0798446
0.0438534
0.0695175
0.0713056
0.0737852
0.0756803
0.0769334
0.0780357
0.0790365
0.0797702
0.0799737
0.0796486
0.0796172
0.0793428
0.0789092
0.0783573
0.0777304
0.0770779
0.0764685
0.0760159
0.0758676
0.0761048
0.0781616
0.0776114
0.0781546
0.0789972
0.0798567
0.0807545
0.0816847
0.0826142
0.0834796
0.0842246
0.0848804
0.0855969
0.0867918
0.0879307
0.0891179
0.089936
0.0894354
0.0874539
0.0848895
0.0196664
0.0475582
0.0533119
0.0625722
0.068661
0.0714546
0.0736435
0.0758814
0.0774917
0.0774405
0.0775641
0.0774368
0.0770558
0.0765671
0.0761183
0.0758173
0.0757006
0.0757332
0.0758628
0.0761026
0.0764084
0.0782766
0.0776971
0.0774678
0.0778688
0.0784578
0.079259
0.0801895
0.0811479
0.0819944
0.0826078
0.0830644
0.0846217
0.0860118
0.087515
0.0895911
0.0923914
0.0934948
0.0920193
0.0894213
-0.0627393
-0.0122321
0.00432877
0.0363119
0.0553112
0.0610629
0.0652654
0.0703181
0.0736098
0.0723282
0.0734754
0.0727886
0.0718954
0.0711363
0.0708703
0.0713237
0.072423
0.0738096
0.0749894
0.0757779
0.0758781
0.0773249
0.0763863
0.0746648
0.0740524
0.0739238
0.074263
0.0746984
0.0750244
0.0750613
0.0747569
0.0748923
0.0790232
0.0795241
0.0802017
0.0817169
0.0894965
0.0940118
0.0929626
0.0902401
-0.316961
-0.126286
-0.0729825
0.00535303
0.0382765
0.0452705
0.0547515
0.064785
0.0657938
0.0679391
0.0669636
0.0645504
0.0623695
0.0609324
0.0610362
0.0630868
0.0665607
0.0703231
0.0728371
0.0740681
0.0731274
0.0743612
0.0724755
0.0684264
0.0656746