# vtk DataFile Version 4.0
Nusif Fluid VTK output
ASCII
DATASET STRUCTURED_POINTS
DIMENSIONS 40 30 1
ORIGIN 0 0 0 
SPACING 0.2 0.2 1
POINT_DATA 1200 

VECTORS velocity double
0.00787766 -0.00718385  0
0.023414 -0.00702137  0
0.0384059 -0.00669751  0
0.0525914 -0.00621794  0
0.0656667 -0.00559026  0
0.0773451 -0.00482373  0
0.0873602 -0.00392944  0
0.0954705 -0.00292116  0
0.101466 -0.00181659  0
0.105177 -0.000638705  0
0.106487 0.000583179  0
0.105344 0.00181283  0
0.101774 0.00300869  0
0.0958889 0.00412679  0
0.0878864 0.00512556  0
0.078039 0.0059711  0
0.066675 0.00664165  0
0.0541526 0.00712929  0
0.0408339 0.00743772  0
0.027068 0.00757636  0
0.0131868 0.0075532  0
-0.000487095 0.0073692  0
-0.0136273 0.00701981  0
-0.0258905 0.00649247  0
-0.0369138 0.0057805  0
-0.046332 0.00488776  0
-0.0538016 0.0038326  0
-0.0590301 0.00264733  0
-0.0618002 0.00137499  0
-0.0619877 6.53724e-05  0
-0.0595713 -0.00122801  0
-0.0546411 -0.00244777  0
-0.0474132 -0.00352482  0
-0.0382725 -0.00435992  0
-0.0278587 -0.00479722  0
-0.0171873 -0.00461698  0
-0.00769962 -0.00361304  0
-0.00101454 -0.00181401  0
0.00179399 0.000263736  0
0.00107972 0.0017089  0
0.00804032 -0.021772  0
0.0239009 -0.0212802  0
0.0392103 -0.0203018  0
0.0537001 -0.0188543  0
0.067063 -0.0169609  0
0.0790085 -0.014649  0
0.0892655 -0.0119513  0
0.0975861 -0.0089079  0
0.103751 -0.00557039  0
0.107579 -0.00200661  0
0.108941 0.00169566  0
0.107772 0.0054266  0
0.104091 0.00905837  0
0.0980108 0.0124543  0
0.0897377 0.0154844  0
0.0795646 0.018043  0
0.0678448 0.0200633  0
0.0549605 0.0215238  0
0.0412906 0.0224411  0
0.0271889 0.0228499  0
0.0129801 0.0227791  0
-0.00102633 0.0222334  0
-0.0145147 0.0211944  0
-0.027141 0.0196179  0
-0.0385285 0.0174772  0
-0.0482876 0.0147802  0
-0.0560475 0.0115824  0
-0.0614919 0.00798397  0
-0.0643873 0.00411844  0
-0.0646026 0.000140105  0
-0.0621195 -0.00378573  0
-0.0570399 -0.00748238  0
-0.0496008 -0.0107388  0
-0.0402127 -0.0132554  0
-0.0295414 -0.0145667  0
-0.0186177 -0.0140218  0
-0.00887804 -0.0110143  0
-0.0019173 -0.00563687  0
0.0012132 0.000569524  0
0.000876492 0.00487611  0
0.0083696 -0.0369136  0
0.0248847 -0.0360816  0
0.0408329 -0.03443  0
0.0559341 -0.0319903  0
0.0698743 -0.0288023  0
0.0823573 -0.0249114  0
0.0931041 -0.0203692  0
0.101854 -0.0152381  0
0.10837 -0.00959906  0
0.112446 -0.00356081  0
0.113924 0.00273166  0
0.112712 0.00909159  0
0.108812 0.015295  0
0.102333 0.0210972  0
0.0935043 0.0262629  0
0.0826605 0.0306012  0
0.0702094 0.0339957  0
0.0565862 0.0364186  0
0.0422056 0.0379166  0
0.0274306 0.038571  0
0.0125692 0.0384483  0
-0.00210225 0.0375624  0
-0.0162939 0.0358659  0
-0.0296618 0.0332614  0
-0.0417987 0.0296793  0
-0.0522616 0.0251215  0
-0.0606209 0.0196821  0
-0.0665093 0.0135392  0
-0.0696593 0.00693127  0
-0.0699259 0.000131987  0
-0.0672961 -0.00656711  0
-0.0618963 -0.0128566  0
-0.0540038 -0.018372  0
-0.044082 -0.0226074  0
-0.03285 -0.0247931  0
-0.0213764 -0.0238677  0
-0.0111013 -0.0188579  0
-0.00358607 -0.00994394  0
0.000158894 0.000326422  0
0.000512421 0.0074276  0
0.00887202 -0.0528945  0
0.0263836 -0.0517048  0
0.0433005 -0.0493488  0
0.0593268 -0.0458771  0
0.0741409 -0.0413491  0
0.0874406 -0.0358275  0
0.0989379 -0.0293783  0
0.108356 -0.0220788  0
0.115429 -0.0140299  0
0.119912 -0.00537266  0
0.121599 0.00369495  0
0.12035 0.0129048  0
0.116129 0.0219192  0
0.10904 0.0303565  0
0.0993444 0.0378428  0
0.0874481 0.0440766  0
0.0738509 0.0488838  0
0.059077 0.0522429  0
0.0436018 0.0542634  0
0.027803 0.0551135  0
0.0119563 0.0549296  0
-0.00372305 0.0537477  0
-0.0189961 0.0514613  0
-0.0335212 0.047875  0
-0.0468369 0.0428347  0
-0.0584094 0.0363183  0
-0.0677106 0.0284629  0
-0.0742912 0.0195448  0
-0.0778305 0.00993292  0
-0.078161 4.57432e-05  0
-0.0752782 -0.00967467  0
-0.0693448 -0.0187631  0
-0.0607015 -0.0266815  0
-0.0498945 -0.0327066  0
-0.0377309 -0.0357693  0
-0.0253487 -0.0344267  0
-0.0142135 -0.0273883  0
-0.00585857 -0.0149628  0
-0.00124352 -0.00069375  0
3.55842e-05 0.00913601  0
0.00955787 -0.0700724  0
0.0284262 -0.0684957  0
0.0466545 -0.0653854  0
0.0639268 -0.0608223  0
0.0799163 -0.0548919  0
0.0943199 -0.0476735  0
0.106844 -0.0392404  0
0.117195 -0.029672  0
0.125071 -0.0190739  0
0.130174 -0.00760266  0
0.13222 0.00450225  0
0.130988 0.0168891  0
0.126375 0.0290801  0
0.118464 0.0405055  0
0.107567 0.0505968  0
0.0941941 0.0589019  0
0.0789823 0.0651779  0
0.0625868 0.0694287  0
0.0455749 0.0718752  0
0.028348 0.0728379  0
0.0111339 0.0725769  0
-0.00594995 0.0711745  0
-0.0227475 0.0684163  0
-0.0389168 0.0639257  0
-0.0539073 0.0574019  0
-0.0670471 0.0487753  0
-0.077666 0.0382382  0
-0.0852007 0.0261974  0
-0.0892582 0.0131901  0
-0.0896409 -0.000184794  0
-0.0863531 -0.0133009  0
-0.079607 -0.025502  0
-0.0698328 -0.0360451  0
-0.0576982 -0.0439694  0
-0.0441434 -0.0479092  0
-0.0304213 -0.0460751  0
-0.0180577 -0.0369225  0
-0.00857508 -0.0209498  0
-0.00287571 -0.00270484  0
-0.000510571 0.00981912  0
0.0104419 -0.0888298  0
0.0310512 -0.0868171  0
0.0509455 -0.0828745  0
0.069786 -0.0771349  0
0.0872504 -0.0697231  0
0.103049 -0.0607349  0
0.116893 -0.0502393  0
0.128476 -0.0382998  0
0.137463 -0.0250025  0
0.143482 -0.0104895  0
0.146144 0.00498657  0
0.145089 0.0209967  0
0.140094 0.0368865  0
0.131196 0.0518128  0
0.118768 0.0649198  0
0.103473 0.0755524  0
0.0861226 0.0833944  0
0.067538 0.0884975  0
0.0484111 0.0912506  0
0.0291914 0.0922146  0
0.0100575 0.091854  0
-0.00900153 0.0903461  0
-0.0279312 0.0872779  0
-0.0463615 0.0819698  0
-0.0636039 0.073897  0
-0.0788024 0.062925  0
-0.091112 0.0493239  0
-0.0998355 0.0336772  0
-0.104499 0.0167385  0
-0.104866 -0.000674632  0
-0.100947 -0.0177091  0
-0.0930127 -0.0334652  0
-0.0816144 -0.0469446  0
-0.0675915 -0.0569172  0
-0.0520781 -0.0617188  0
-0.0365014 -0.0592533  0
-0.0224948 -0.0478033  0
-0.011593 -0.028142  0
-0.00463449 -0.00585907  0
-0.00108954 0.00937471  0
0.0115399 -0.109579  0
0.0342958 -0.107047  0
0.0562102 -0.102147  0
0.0769226 -0.0951098  0
0.0961366 -0.0861224  0
0.113603 -0.0752965  0
0.129063 -0.0626799  0
0.142217 -0.0482951  0
0.152703 -0.0321786  0
0.16008 -0.0144093  0
0.163812 0.0048123  0
0.163323 0.0250143  0
0.158158 0.0453288  0
0.148243 0.0644832  0
0.13404 0.0811793  0
0.116417 0.0945114  0
0.0963738 0.104128  0
0.0748807 0.110141  0
0.0527793 0.113135  0
0.0306215 0.114008  0
0.00858697 0.11353  0
-0.0134448 0.112062  0
-0.0354697 0.108818  0
-0.0569973 0.102689  0
-0.0771438 0.0928677  0
-0.0948562 0.0791662  0
-0.109128 0.0619652  0
-0.119148 0.0420819  0
-0.124383 0.0205339  0
-0.124558 -0.00162513  0
-0.119662 -0.0232698  0
-0.110027 -0.0431707  0
-0.0963657 -0.0599942  0
-0.0797554 -0.0721958  0
-0.0615971 -0.0778063  0
-0.0435621 -0.0744715  0
-0.0274454 -0.060402  0
-0.0148205 -0.0367634  0
-0.00644982 -0.0102603  0
-0.00167535 0.00776303  0
0.0128515 -0.13275  0
0.0381422 -0.129551  0
0.0623798 -0.123494  0
0.0851918 -0.114988  0
0.106351 -0.104319  0
0.125697 -0.0916143  0
0.143042 -0.076871  0
0.158121 -0.060041  0
0.170591 -0.0410932  0
0.179989 -0.0199757  0
0.185617 0.00331252  0
0.186543 0.0283702  0
0.181843 0.0541319  0
0.171166 0.0785665  0
0.155122 0.0996359  0
0.134899 0.116196  0
0.111634 0.128047  0
0.0863083 0.135336  0
0.0598916 0.138753  0
0.0331419 0.139592  0
0.00638785 0.139029  0
-0.0204336 0.137711  0
-0.0471362 0.134191  0
-0.0729066 0.126908  0
-0.096631 0.114814  0
-0.117142 0.0977386  0
-0.13338 0.0761973  0
-0.144518 0.0513046  0
-0.150053 0.0243777  0
-0.149682 -0.00336894  0
-0.143304 -0.0305011  0
-0.131282 -0.0552991  0
-0.114552 -0.0759578  0
-0.094518 -0.0905769  0
-0.0729229 -0.0968781  0
-0.0517445 -0.0923122  0
-0.0329853 -0.075136  0
-0.0182849 -0.0470533  0
-0.00832398 -0.0160005  0
-0.00226608 0.00497229  0
0.0143083 -0.158699  0
0.0423672 -0.154594  0
0.0690453 -0.147073  0
0.0939859 -0.136868  0
0.117099 -0.12442  0
0.138389 -0.109859  0
0.157793 -0.0930851  0
0.175111 -0.0739344  0
0.190097 -0.052367  0
0.202444 -0.0281589  0
0.21138 -0.000780241  0
0.215434 0.02977  0
0.212594 0.06256  0
0.201765 0.0939335  0
0.183961 0.120404  0
0.161065 0.140834  0
0.134206 0.155822  0
0.103967 0.165414  0
0.0713157 0.170033  0
0.0373503 0.171317  0
0.00281818 0.17088  0
-0.0317847 0.169574  0
-0.0655027 0.165038  0
-0.0969244 0.155543  0
-0.124781 0.14005  0
-0.148038 0.11856  0
-0.165806 0.0916707  0
-0.177434 0.0608868  0
-0.182693 0.0278801  0
-0.181306 -0.00633854  0
-0.172863 -0.0400606  0
-0.157618 -0.0707143  0
-0.13685 -0.0957468  0
-0.112437 -0.112941  0
-0.0865326 -0.119719  0
-0.0614582 -0.113428  0
-0.0394424 -0.0924987  0
-0.0222117 -0.0593253  0
-0.0103794 -0.0232252  0
-0.0028991 0.000955276  0
0.0156739 -0.187482  0
0.0462642 -0.182116  0
0.0750509 -0.172727  0
0.101748 -0.160565  0
0.126492 -0.146294  0
0.149551 -0.130049  0
0.171055 -0.111519  0
0.190782 -0.0902618  0
0.208582 -0.0665439  0
0.224763 -0.0402281  0
0.23902 -0.00962217  0
0.249299 0.0265604  0
0.250847 0.0693433  0
0.240441 0.110668  0
0.220569 0.143628  0
0.195118 0.168239  0
0.164776 0.187901  0
0.128747 0.201885  0
0.0877619 0.209482  0
0.0433282 0.212551  0
-0.00309072 0.212881  0
-0.0493512 0.21072  0
-0.092689 0.203232  0
-0.13102 0.189386  0
-0.163179 0.168508  0
-0.188626 0.14109  0
-0.206967 0.107532  0
-0.218006 0.0699751  0
-0.222379 0.0307085  0
-0.21998 -0.0106675  0
-0.209383 -0.052486  0
-0.190171 -0.0904593  0
-0.164214 -0.120438  0
-0.134266 -0.140321  0
-0.102996 -0.147224  0
-0.0731536 -0.138549  0
-0.0472049 -0.113051  0
-0.0269183 -0.0739987  0
-0.012812 -0.0321989  0
-0.00363687 -0.00443501  0
0.0164402 -0.218409  0
0.0483818 -0.211392  0
0.0781911 -0.199764  0
0.105721 -0.185474  0
0.131391 -0.169518  0
0.155859 -0.152073  0
0.179572 -0.132435  0
0.201671 -0.108895  0
0.221421 -0.0831848  0
0.240817 -0.0568889  0
0.262044 -0.0261692  0
0.283559 0.0135882  0
0.293404 0.0731981  0
0.282115 0.130784  0
0.257765 0.170011  0
0.23037 0.196978  0
0.198131 0.224021  0
0.156326 0.245877  0
0.10602 0.25906  0
0.0491226 0.266583  0
-0.0122293 0.2689  0
-0.072718 0.26373  0
-0.126889 0.250009  0
-0.1725 0.228829  0
-0.208417 0.199418  0
-0.234701 0.164188  0
-0.25214 0.12249  0
-0.261473 0.0776669  0
-0.265411 0.0336058  0
-0.264244 -0.0148518  0
-0.253668 -0.0671948  0
-0.230512 -0.115838  0
-0.197802 -0.151444  0
-0.160503 -0.174279  0
-0.122044 -0.18071  0
-0.0861159 -0.168548  0
-0.0556325 -0.137198  0
-0.0321184 -0.0913655  0
-0.0155543 -0.0432158  0
-0.00446617 -0.0113948  0
0.0158908 -0.249563  0
0.0467961 -0.240769  0
0.0758485 -0.226972  0
0.102982 -0.210654  0
0.128763 -0.193515  0
0.154305 -0.175814  0
0.181216 -0.157048  0
0.205405 -0.128301  0
0.222741 -0.0985964  0
0.24009 -0.0759537  0
0.266948 -0.0529196  0
0.305556 -0.0175153  0
0.328421 0.0738617  0
0.309665 0.162435  0
0.273732 0.200914  0
0.248161 0.221311  0
0.219448 0.262912  0
0.172187 0.298324  0
0.114066 0.317314  0
0.0486676 0.3329  0
-0.023925 0.338802  0
-0.0947519 0.327418  0
-0.156802 0.304816  0
-0.209124 0.274226  0
-0.247551 0.230636  0
-0.271729 0.185704  0
-0.286269 0.135224  0
-0.293906 0.084174  0
-0.300872 0.0402741  0
-0.307848 -0.013439  0
-0.304969 -0.0797893  0
-0.279941 -0.149152  0
-0.237771 -0.190732  0
-0.190047 -0.217737  0
-0.14071 -0.222768  0
-0.0961609 -0.204687  0
-0.0609452 -0.164477  0
-0.0355894 -0.110675  0
-0.0176698 -0.0561083  0
-0.00512912 -0.0198491  0
0.0135582 -0.277847  0
0.0405432 -0.268074  0
0.0674285 -0.253333  0
0.0935731 -0.235301  0
0.118738 -0.217547  0
0.144177 -0.200497  0
0.177785 -0.190619  0
0.201892 -0.140763  0
0.205194 -0.104511  0
0.210981 -0.0909137  0
0.236588 -0.088161  0
0.284014 -0.066044  0
0.317906 0.0678974  0
0.288306 0.219021  0
0.239493 0.231338  0
0.230868 0.227347  0
0.213691 0.305031  0
0.152871 0.366553  0
0.0870692 0.375277  0
0.0301335 0.399542  0
-0.0328649 0.410022  0
-0.0951088 0.391539  0
-0.154977 0.364882  0
-0.214613 0.328385  0
-0.25704 0.259595  0
-0.275854 0.202  0
-0.285227 0.145106  0
-0.293493 0.0924607  0
-0.309434 0.0571587  0
-0.333812 0.00329599  0
-0.354765 -0.0761836  0
-0.334008 -0.196273  0
-0.277825 -0.239692  0
-0.217247 -0.274806  0
-0.152028 -0.277979  0
-0.0948393 -0.248938  0
-0.055709 -0.192295  0
-0.0331265 -0.128517  0
-0.0175353 -0.0694988  0
-0.00520869 -0.0290481  0
0.0100578 -0.300307  0
0.0320103 -0.292261  0
0.0575224 -0.279276  0
0.0840063 -0.259721  0
0.105407 -0.23743  0
0.122864 -0.22125  0
0.167432 -0.245784  0
0.182747 -0.123326  0
0.160353 -0.101727  0
0.160496 -0.0984993  0
0.164455 -0.109011  0
0.176361 -0.103396  0
0.19281 0.0560394  0
0.215149 0.239271  0
0.236956 0.239223  0
0.236078 0.230097  0
0.204743 0.351924  0
0.103122 0.483232  0
0.0187917 0.410431  0
0.0031771 0.439208  0
-0.0174768 0.456277  0
-0.0435986 0.435916  0
-0.0780314 0.41707  0
-0.135181 0.395246  0
-0.202257 0.303933  0
-0.235546 0.210895  0
-0.240608 0.151776  0
-0.251803 0.106383  0
-0.273538 0.082042  0
-0.307564 0.0379489  0
-0.367854 -0.0284622  0
-0.36398 -0.266924  0
-0.293055 -0.29388  0
-0.227209 -0.344774  0
-0.147744 -0.350424  0
-0.0761874 -0.302965  0
-0.0364581 -0.214855  0
-0.0243314 -0.138393  0
-0.0159347 -0.0813366  0
-0.00503887 -0.0381587  0
0.00759401 -0.316811  0
0.027994 -0.315829  0
0.0533998 -0.304363  0
0.0827699 -0.288228  0
0.0881736 -0.234033  0
0.0757817 -0.228582  0
0.0747563 -0.280866  0
0.11692 -0.19193  0
0.159208 -0.0498321  0
0.166046 -0.0503526  0
0.170877 -0.0553816  0
0.0961073 -0.0567752  0
0.024421 0.0248723  0
0.123291 0.111614  0
0.230201 0.11673  0
0.164499 0.118369  0
0.0430322 0.188309  0
0.0297277 0.489281  0
0.0629476 0.418402  0
0.0412676 0.470235  0
0.019222 0.470218  0
-0.00177065 0.470788  0
-0.0301275 0.446119  0
-0.0378571 0.432207  0
-0.074842 0.38341  0
-0.145354 0.106752  0
-0.191419 0.0771145  0
-0.222206 0.0575625  0
-0.245467 0.0475172  0
-0.265444 0.0294916  0
-0.26889 -0.149346  0
-0.257372 -0.309486  0
-0.238888 -0.339592  0
-0.194241 -0.408423  0
-0.125718 -0.433062  0
-0.0533961 -0.361937  0
-0.0228272 -0.223912  0
-0.0252317 -0.136788  0
-0.0208363 -0.0934628  0
-0.00671582 -0.0487782  0
0.00780122 -0.331067  0
0.0326685 -0.34457  0
0.0449854 -0.311648  0
0.0402362 -0.304434  0
0.0609667 -0.263551  0
0.104881 -0.113779  0
0.101411 -0.140433  0
0.0373782 -0.140433  0
0 0  0
0 0  0
0 0  0
0 0  0
0 0  0
0 0  0
0 0  0
0 0  0
0 0  0
0.0314738 0.209201  0
0.0432096 0.455442  0
0.0234716 0.492482  0
0.0234716 0.471149  0
0.0193205 0.481282  0
-0.000523105 0.226924  0
-0.0270363 0.216103  0
-0.0189286 0.216103  0
0 0  0
0 0  0
0 0  0
0 0  0
0 0  0
-0.128686 -0.154743  0
-0.233077 -0.154743  0
-0.176338 -0.179037  0
-0.112936 -0.454719  0
-0.0819797 -0.474852  0
-0.0714205 -0.401893  0
-0.0641176 -0.220694  0
-0.0597902 -0.140227  0
-0.0365128 -0.115427  0
-0.0104096 -0.0647699  0
0.00441765 -0.342717  0
0.00883531 -0.361071  0
0.0233033 -0.333985  0
0.0390038 -0.152217  0
0.0201181 -0.152217  0
0 0  0
0 0  0
0 0  0
0 0  0
0 0  0
0 0  0
0 0  0
0 0  0
0 0  0
0 0  0
0 0  0
0 0  0
0 0  0
0.0117358 0.246241  0
0.0341381 0.246241  0
0.0341381 0.235575  0
0.0117358 0.235575  0
0 0  0
0 0  0
0 0  0
0 0  0
0 0  0
0 0  0
0 0  0
0 0  0
0 0  0
0 0  0
0 0  0
-0.0409898 -0.237426  0
-0.11318 -0.237426  0
-0.200128 -0.206226  0
-0.138673 -0.182341  0
-0.0214698 -0.147243  0
-0.0175301 -0.134493  0
-0.00679516 -0.0814082  0
0.0113856 -0.173567  0
0.0158033 -0.180535  0
0.00441765 -0.180535  0
0 0  0
0 0  0
0 0  0
0 0  0
0 0  0
0 0  0
0 0  0
0 0  0
0 0  0
0 0  0
0 0  0
0 0  0
0 0  0
0 0  0
0 0  0
0 0  0
0 0  0
0 0  0
0 0  0
0 0  0
0 0  0
0 0  0
0 0  0
0 0  0
0 0  0
0 0  0
0 0  0
0 0  0
0 0  0
0 0  0
0 0  0
0 0  0
0 0  0
-0.0107349 -0.0736216  0
-0.0258749 -0.0736216  0
-0.0470501 -0.0692166  0
-0.0319101 -0.0441017  0
0 0  0
0 0  0
0 0  0
0 0  0
0 0  0
0 0  0
0 0  0
0 0  0
0 0  0
0 0  0
0 0  0
0 0  0
0 0  0
0 0  0
0 0  0
0 0  0
0 0  0
0 0  0
0 0  0
0 0  0
0 0  0
0 0  0
0 0  0
0 0  0
0 0  0
0 0  0
0 0  0
0 0  0
0 0  0
0 0  0
0 0  0
0 0  0
0 0  0
0 0  0
0 0  0
0 0  0
0 0  0
0 0  0
0 0  0
0 0  0
0 0  0
0 0  0
0 0  0
0 0  0
0 0  0
0 0  0
0 0  0
0 0  0
0 0  0
0 0  0
0 0  0
0 0  0
0 0  0
0 0  0
0 0  0
0 0  0
0 0  0
0 0  0
0 0  0
0 0  0
0 0  0
0 0  0
0 0  0
0 0  0
0 0  0
0 0  0
0 0  0
0 0  0
0 0  0
0 0  0
0 0  0
0 0  0
0 0  0
0 0  0
0 0  0
0 0  0
0 0  0
0 0  0
0 0  0
0 0  0
0 0  0
0 0  0
0 0  0
0 0  0
0 0  0
0 0  0
0 0  0
0 0  0
0 0  0
0 0  0
0 0  0
0 0  0
0 0  0
0 0  0
0 0  0
0 0  0
0 0  0
0 0  0
0 0  0
0 0  0
0 0  0
0 0  0
0 0  0
0 0  0
0 0  0
0 0  0
0 0  0
0 0  0
0 0  0
0 0  0
0 0  0
0 0  0
0 0  0
0 0  0
0 0  0
0 0  0
0 0  0
0 0  0
0 0  0
0 0  0
0 0  0
0 0  0
0 0  0
0 0  0
0 0  0
0 0  0
0 0  0
0 0  0
0 0  0
0 0  0
0 0  0
0 0  0
0 0  0
0 0  0
0 0  0
0 0  0
0 0  0
0 0  0
0 0  0
0 0  0
0 0  0
0 0  0
0 0  0
0 0  0
0 0  0
0 0  0
0 0  0
0 0  0
0 0  0
0 0  0
0 0  0
0 0  0
0 0  0
0 0  0
0 0  0
0 0  0
0 0  0
0 0  0
0 0  0
0 0  0
0 0  0
0 0  0
0 0  0
0 0  0
0 0  0
0 0  0
0 0  0
0 0  0
0 0  0
0 0  0
0 0  0
0 0  0
0 0  0
0 0  0
0 0  0
0 0  0
0 0  0
0 0  0
0 0  0
0 0  0
0 0  0
0 0  0
0 0  0
0 0  0
0 0  0
0 0  0
0 0  0
0 0  0
0 0  0
0 0  0
0 0  0
0 0  0
0 0  0
0 0  0
0 0  0
0 0  0
0 0  0
0 0  0
0 0  0
0 0  0
0 0  0
0 0  0
0 0  0
0 0  0
0 0  0
0 0  0
0 0  0
0 0  0
0 0  0
0 0  0
0 0  0
0 0  0
0 0  0
0 0  0
0 0  0
0 0  0
0 0  0
0 0  0
0 0  0
0 0  0
0 0  0
0 0  0
0 0  0
0 0  0
0 0  0
0 0  0
0 0  0
0 0  0
0 0  0
0 0  0
0 0  0
0 0  0
0 0  0
0 0  0
0 0  0
0 0  0
0 0  0
0 0  0
0 0  0
0 0  0
0 0  0
0 0  0
0 0  0
0 0  0
0 0  0
0 0  0
0 0  0
0 0  0
0 0  0
0 0  0
0 0  0
0 0  0
0 0  0
0 0  0
0 0  0
0 0  0
0 0  0
0 0  0
0 0  0
0 0  0
0 0  0
0 0  0
0 0  0
0 0  0
0 0  0
0 0  0
0 0  0
0 0  0
0 0  0
0 0  0
0 0  0
0 0  0
0 0  0
0 0  0
0 0  0
0 0  0
0 0  0
0 0  0
0 0  0
0 0  0
0 0  0
0 0  0
0 0  0
0 0  0
0 0  0
0 0  0
0 0  0
0 0  0
0 0  0
0 0  0
0 0  0
0 0  0
0 0  0
0 0  0
0 0  0
0 0  0
0 0  0
0 0  0
0 0  0
0 0  0
0 0  0
0 0  0
0 0  0
0 0  0
0 0  0
0 0  0
0 0  0
0 0  0
0 0  0
0 0  0
0 0  0
0 0  0
0 0  0
0 0  0
0 0  0
0 0  0
0 0  0
0 0  0
0 0  0
0 0  0
0 0  0
0 0  0
0 0  0
0 0  0
0 0  0
0 0  0
0 0  0
0 0  0
0 0  0
0 0  0
0 0  0
0 0  0
0 0  0
0 0  0
0 0  0
0 0  0
0 0  0
0 0  0
0 0  0
0 0  0
0 0  0
0 0  0
0 0  0
0 0  0
0 0  0
0 0  0
0 0  0
0 0  0
0 0  0
0 0  0
0 0  0
0 0  0
0 0  0
0 0  0
0 0  0
0 0  0
0 0  0
0 0  0
0 0  0
0 0  0
0 0  0
0 0  0
0 0  0
0 0  0
0 0  0
0 0  0
0 0  0
0 0  0
0 0  0
0 0  0
0 0  0
0 0  0
0 0  0
0 0  0
0 0  0
0 0  0
0 0  0
0 0  0
0 0  0
0 0  0
0 0  0
0 0  0
0 0  0
0 0  0
0 0  0
0 0  0
0 0  0
0 0  0
0 0  0
0 0  0
0 0  0
0 0  0
0 0  0
0 0  0
0 0  0
0 0  0
0 0  0
0 0  0
0 0  0
0 0  0
0 0  0
0 0  0
0 0  0
0 0  0
0 0  0
0 0  0
0 0  0
0 0  0
0 0  0
0 0  0
0 0  0
0 0  0
0 0  0
0 0  0
0 0  0
0 0  0
0 0  0
0 0  0
0 0  0
0 0  0
0 0  0
0 0  0
0 0  0
0 0  0
0 0  0
0 0  0
0 0  0
0 0  0
0 0  0
0 0  0
0 0  0
0 0  0
0 0  0
0 0  0
0 0  0
0 0  0
0 0  0
0 0  0
0 0  0
0 0  0
0 0  0
0 0  0
0 0  0
0 0  0
0 0  0
0 0  0
0 0  0
0 0  0
0 0  0
0 0  0
0 0  0
0 0  0
0 0  0
0 0  0
0 0  0
0 0  0
0 0  0
0 0  0
0 0  0
0 0  0
0 0  0
0 0  0
0 0  0
0 0  0
0 0  0
0 0  0
0 0  0
0 0  0
0 0  0
0 0  0
0 0  0
0 0  0
0 0  0
0 0  0
0 0  0
0 0  0
0 0  0
0 0  0
0 0  0
0 0  0

SCALARS pressure double 1
LOOKUP_TABLE default
2.22703
2.22662
2.2256
2.22408
2.22218
2.22007
2.21793
2.21595
2.21429
2.21308
2.21242
2.21237
2.21291
2.21401
2.21558
2.2175
2.21964
2.22186
2.22404
2.22609
2.22795
2.22958
2.23093
2.23213
2.23327
2.23444
2.23575
2.23727
2.23904
2.24107
2.24331
2.24566
2.24802
2.25024
2.25221
2.25383
2.25508
2.25599
2.25661
2.25693
2.03325
2.03279
2.03172
2.0301
2.0281
2.02587
2.02363
2.02154
2.01979
2.01851
2.01781
2.01774
2.0183
2.01944
2.02107
2.02305
2.02527
2.02756
2.0298
2.0319
2.03379
2.03542
2.03675
2.03791
2.03901
2.04015
2.04144
2.04296
2.04476
2.04683
2.04914
2.05157
2.054
2.0563
2.05832
2.06
2.06129
2.06225
2.06289
2.06323
1.84555
1.84503
1.84382
1.84201
1.83979
1.83732
1.83484
1.83253
1.8306
1.82919
1.8284
1.8283
1.82889
1.8301
1.83184
1.83397
1.83633
1.83877
1.84115
1.84335
1.84528
1.84692
1.8482
1.8493
1.85032
1.85139
1.85263
1.85416
1.85601
1.8582
1.86064
1.86324
1.86583
1.86828
1.87044
1.87223
1.87362
1.87465
1.87536
1.87573
1.66397
1.66333
1.66189
1.65979
1.6572
1.65435
1.65148
1.64883
1.64661
1.64498
1.64406
1.64392
1.64456
1.64589
1.64781
1.65016
1.65277
1.65546
1.65805
1.66041
1.66243
1.66406
1.66526
1.66622
1.6671
1.66804
1.66921
1.67074
1.67268
1.67504
1.67772
1.68058
1.68345
1.68614
1.68853
1.6905
1.69205
1.69321
1.69402
1.69444
1.48852
1.48771
1.48596
1.48341
1.48029
1.47688
1.47345
1.47029
1.46765
1.46572
1.46462
1.46444
1.46514
1.46665
1.46883
1.47152
1.4745
1.47757
1.4805
1.4831
1.48525
1.48684
1.48789
1.48862
1.48924
1.48996
1.491
1.49251
1.49458
1.49719
1.50023
1.50349
1.50677
1.50985
1.51258
1.51484
1.51663
1.51798
1.51892
1.51942
1.31927
1.31823
1.31603
1.31285
1.30899
1.30477
1.30056
1.29669
1.29347
1.29114
1.28982
1.28958
1.29039
1.29215
1.2947
1.29785
1.30139
1.30502
1.30847
1.31145
1.31377
1.31528
1.31605
1.31638
1.31656
1.3169
1.3177
1.31917
1.32141
1.3244
1.32795
1.3318
1.33568
1.33933
1.34255
1.34524
1.34738
1.34901
1.35015
1.35074
1.15632
1.15496
1.15213
1.14809
1.1432
1.13788
1.13258
1.12773
1.12373
1.12087
1.11927
1.11898
1.11995
1.12203
1.12506
1.12887
1.1332
1.13769
1.14193
1.14549
1.14807
1.1494
1.14967
1.14932
1.14876
1.14848
1.14888
1.15025
1.15272
1.15625
1.16055
1.16526
1.17001
1.17447
1.17841
1.1817
1.18434
1.18636
1.18777
1.18851
0.999791
0.997993
0.994323
0.989117
0.982836
0.976009
0.969207
0.96301
0.957947
0.954383
0.95245
0.95212
0.953292
0.955773
0.959413
0.964088
0.969558
0.975356
0.980837
0.985321
0.988284
0.989247
0.988663
0.987143
0.985379
0.984086
0.983845
0.985037
0.987826
0.992135
0.997528
1.00348
1.00949
1.01512
1.02008
1.02422
1.02755
1.03012
1.03191
1.03285
0.849885
0.847503
0.842705
0.835938
0.827793
0.818937
0.810083
0.802005
0.795478
0.790997
0.788678
0.788305
0.789705
0.792614
0.796936
0.802723
0.809822
0.817601
0.825044
0.830997
0.834546
0.83483
0.8328
0.82937
0.825639
0.822749
0.821523
0.822435
0.825678
0.831124
0.838122
0.845911
0.853736
0.861038
0.86745
0.872807
0.877109
0.880423
0.882741
0.883951
0.706901
0.703747
0.69747
0.688658
0.678064
0.666514
0.654846
0.644095
0.635543
0.629862
0.62707
0.626633
0.628185
0.631446
0.636421
0.643547
0.652907
0.663661
0.674191
0.682484
0.68687
0.685991
0.681642
0.675185
0.668321
0.663006
0.660369
0.660898
0.664777
0.671832
0.681198
0.691719
0.702175
0.711881
0.720391
0.727477
0.733128
0.737461
0.740485
0.742062
0.571342
0.567192
0.559016
0.54757
0.533814
0.518786
0.503268
0.488551
0.477258
0.470138
0.466737
0.466113
0.4674
0.470824
0.476325
0.4849
0.497159
0.512204
0.527549
0.539448
0.544853
0.542161
0.534399
0.523408
0.511608
0.502816
0.498411
0.498543
0.503222
0.512315
0.52507
0.53971
0.553965
0.56713
0.578705
0.588279
0.595783
0.601483
0.605448
0.607509
0.444084
0.438674
0.428092
0.413278
0.395458
0.376199
0.355441
0.334256
0.319662
0.31144
0.307475
0.305607
0.305651
0.309275
0.315543
0.325316
0.340459
0.361243
0.384337
0.401443
0.407684
0.402308
0.390207
0.372937
0.353118
0.339886
0.333913
0.333958
0.339295
0.350144
0.367163
0.388127
0.40784
0.425862
0.442017
0.455204
0.465187
0.472723
0.477996
0.480737
0.326565
0.319576
0.305906
0.286731
0.263378
0.239915
0.212225
0.178413
0.161496
0.154235
0.150528
0.14512
0.143113
0.146529
0.154946
0.16454
0.180428
0.207711
0.246109
0.27031
0.275862
0.266225
0.249821
0.224785
0.189842
0.172653
0.167001
0.167898
0.172816
0.182906
0.20282
0.234348
0.262251
0.286085
0.309356
0.327914
0.341108
0.351276
0.358567
0.362368
0.22082
0.211836
0.19398
0.16928
0.136518
0.112785
0.0770306
0.0103335
0.000835244
-0.00112466
-0.000754319
-0.00549041
-0.0026664
-0.00839559
-0.0029798
0.00336202
0.0122026
0.0385738
0.121655
0.156266
0.15605
0.136469
0.11889
0.0898507
0.0149584
0.00104884
0.00113966
0.00437602
0.00644776
0.010274
0.0203718
0.0762552
0.118381
0.14337
0.178582
0.205484
0.222661
0.237275
0.24801
0.253436
0.129295
0.117853
0.0936233
0.0645087
0.00542166
0.000888664
-0.0185039
0
0
0
0
0
0
0
0
0
0
0
0.0440356
0.0804973
0.0596667
0.00995753
0.00351842
0.0112569
0
0
0
0
0
0
0
-0.0497337
-0.00835953
-0.0138165
0.0486205
0.0888597
0.109096
0.132441
0.148548
0.155633
0.0546269
0.0412334
0.00225281
-0.00415279
0
0
0
0
0
0
0
0
0
0
0
0
0
0
0
0.0657747
-0.0030139
0
0
0
0
0
0
0
0
0
0
0
0
0
-0.0634826
-0.00523564
0.00235882
0.043204
0.0641258
0.0705804
-0.00210903
-0.00528908
0
0
0
0
0
0
0
0
0
0
0
0
0
0
0
0
0
0
0
0
0
0
0
0
0
0
0
0
0
0
0
0
0
0
0
-0.0219392
-0.00177665
-0.00328933
0
0
0
0
0
0
0
0
0
0
0
0
0
0
0
0
0
0
0
0
0
0
0
0
0
0
0
0
0
0
0
0
0
0
0
0
0
0
0
0
0
0
0
0
0
0
0
0
0
0
0
0
0
0
0
0
0
0
0
0
0
0
0
0
0
0
0
0
0
0
0
0
0
0
0
0
0
0
0
0
0
0
0
0
0
0
0
0
0
0
0
0
0
0
0
0
0
0
0
0
0
0
0
0
0
0
0
0
0
0
0
0
0
0
0
0
0
0
0
0
0
0
0
0
0
0
0
0
0
0
0
0
0
0
0
0
0
0
0
0
0
0
0
0
0
0
0
0
0
0
0
0
0
0
0
0
0
0
0
0
0
0
0
0
0
0
0
0
0
0
0
0
0
0
0
0
0
0
0
0
0
0
0
0
0
0
0
0
0
0
0
0
0
0
0
0
0
0
0
0
0
0
0
0
0
0
0
0
0
0
0
0
0
0
0
0
0
0
0
0
0
0
0
0
0
0
0
0
0
0
0
0
0
0
0
0
0
0
0
0
0
0
0
0
0
0
0
0
0
0
0
0
0
0
0
0
0
0
0
0
0
0
0
0
0
0
0
0
0
0
0
0
0
0
0
0
0
0
0
0
0
0
0
0
0
0
0
0
0
0
0
0
0
0
0
0
0
0
0
0
0
0
0
0
0
0
0
0
0
0
0
0
0
0
0
0
0
0
0
0
0
0
0
0
0
0
0
0
0
0
0
0
0
0
0
0
0
0
0
0
0
0
0
0
0
0
0
0
0
0
0
0
0
0
0
0
0
0
0
0
0
0
0
0
0
0
0
0
0
0
0
0
0
0
0
0
0
0
0
0
0
0
0
0
0
0
0
0
0
0
0
0
0
0
0
0
0
0
0
0
0
0
0
0
0
0
0
0
0
0
0
0
0
0
0
0
0
0
0
0
0
0
0
0
0
0
0
0
0
0
0
0
0
0
0
0
0
0
0
0
0
0
0
0
0
0
0
0
0
0
0
0
0
0
0
0
0
0
0
0
0
0
0
0
0
0
0
0
0
0
0
0
0
0
0
0
0
0
0
0
0
0
0
0
0
0
0
0
0
0
0
0
0
0
0
0
0
0
0
0
0
0
0
0
0
0
0
0
0
0
0
0
0
0
0
0
0
0
0
0
SCALARS rhs double 1
LOOKUP_TABLE default
-4.7294
-4.79126
-4.79242
-4.79267
-4.79251
-4.79209
-4.79157
-4.7911
-4.79086
-4.791
-4.79154
-4.79256
-4.79397
-4.79567
-4.79752
-4.79934
-4.80097
-4.80226
-4.80313
-4.80354
-4.80356
-4.80508
-4.80177
-4.80036
-4.79866
-4.79684
-4.79508
-4.79358
-4.79253
-4.79204
-4.7922
-4.79293
-4.79403
-4.79506
-4.79542
-4.79447
-4.79223
-4.78988
-4.7892
-4.78939
0.209012
0.150539
0.15065
0.151532
0.152699
0.154031
0.155388
0.156625
0.157592
0.158167
0.158443
0.157943
0.156907
0.155439
0.153716
0.151952
0.150356
0.149089
0.148243
0.147851
0.147746
0.146284
0.149599
0.15101
0.152717
0.154553
0.156299
0.157722
0.158626
0.158798
0.158259
0.157359
0.156185
0.155157
0.15485
0.155779
0.157835
0.159803
0.160464
0.160035
0.203765
0.147753
0.147898
0.148782
0.149937
0.151244
0.152568
0.153768
0.154701
0.155239
0.155682
0.155162
0.154106
0.152624
0.150906
0.149177
0.147653
0.146485
0.145741
0.14542
0.145124
0.143743
0.146984
0.148272
0.149879
0.151653
0.153369
0.154786
0.155698
0.155798
0.155172
0.154358
0.153347
0.152598
0.152696
0.154091
0.156527
0.158696
0.159226
0.158811
0.197735
0.144562
0.144737
0.145612
0.146735
0.147986
0.149238
0.150357
0.151208
0.151634
0.152271
0.151689
0.150577
0.14906
0.147348
0.145691
0.144307
0.143329
0.142778
0.142593
0.141982
0.140744
0.143817
0.14487
0.146287
0.147937
0.149595
0.150999
0.151928
0.151931
0.151229
0.15057
0.149834
0.149532
0.150248
0.152326
0.155305
0.157722
0.158252
0.157784
0.190509
0.1405
0.140722
0.141595
0.142674
0.143838
0.144967
0.145938
0.146621
0.146892
0.147541
0.14691
0.145659
0.144058
0.142361
0.140841
0.139711
0.139063
0.138841
0.138887
0.137784
0.136785
0.139526
0.140174
0.141255
0.142687
0.144241
0.145628
0.146598
0.14646
0.145712
0.145324
0.145032
0.145405
0.147009
0.150023
0.153727
0.156492
0.157142
0.156545
0.181974
0.135396
0.135716
0.136621
0.13766
0.138707
0.139646
0.140364
0.140732
0.140625
0.14112
0.140306
0.138724
0.136936
0.135272
0.134011
0.133306
0.133173
0.133446
0.13383
0.1319
0.131374
0.133537
0.133543
0.134085
0.135159
0.136551
0.137931
0.138994
0.138632
0.137909
0.137985
0.138402
0.139792
0.14267
0.146979
0.151664
0.154932
0.155755
0.155206
0.171976
0.129056
0.129601
0.130645
0.1317
0.13262
0.133298
0.133623
0.133441
0.132586
0.132366
0.131082
0.128717
0.12652
0.124962
0.12419
0.124109
0.124628
0.125481
0.126221
0.122702
0.123282
0.124621
0.123781
0.123569
0.124118
0.125297
0.126724
0.12797
0.127171
0.126661
0.127515
0.129078
0.132029
0.136789
0.142958
0.149043
0.153049
0.154137
0.153721
0.160429
0.121407
0.122467
0.123905
0.125141
0.125993
0.126375
0.126194
0.125183
0.122963
0.120747
0.118217
0.114004
0.110999
0.109864
0.110019
0.110578
0.111468
0.112524
0.113212
0.106267
0.10968
0.110318
0.108823
0.107884
0.107836
0.108844
0.110483
0.11199
0.11021
0.110192
0.112293
0.115749
0.121161
0.128789
0.137739
0.1459
0.15098
0.152359
0.15216
0.147685
0.112921
0.115041
0.117352
0.119095
0.120028
0.120137
0.119529
0.117689
0.113462
0.105919
0.100992
0.0925104
0.0882702
0.0889155
0.090816
0.0909673
0.0904579
0.0899055
0.088798
0.0735809
0.0852159
0.0862632
0.0856848
0.0850805
0.0849104
0.086209
0.0885617
0.0900661
0.0857845
0.0860775
0.0898398
0.0965038
0.105862
0.117912
0.130997
0.142228
0.148846
0.150585
0.150399
0.135297
0.105397
0.109295
0.113058
0.11562
0.116648
0.116267
0.115864
0.11465
0.109049
0.0922539
0.0801518
0.062698
0.0581957
0.0659567
0.0709582
0.0659758
0.0586127
0.0515672
0.0416664
0.012255
0.0407879
0.0473114
0.0521096
0.0558082
0.0577636
0.0610441
0.065457
0.0653301
0.054612
0.0515292
0.0560255
0.0683934
0.083865
0.102554
0.121428
0.137057
0.146048
0.148493
0.148107
0.126658
0.102371
0.108249
0.113481
0.116474
0.116897
0.114078
0.11681
0.121493
0.118625
0.0962005
0.0481991
0.0294827
0.0289392
0.0599637
0.0691031
0.0463593
0.0207362
0.000666941
-0.0353922
-0.0801114
-0.0263103
-0.00364206
0.0130009
0.0311749
0.0415523
0.0503374
0.0584203
0.0517265
0.0261334
0.00384704
0.00268148
0.0268768
0.0496285
0.0775014
0.104104
0.126539
0.140129
0.144994
0.145965
0.125622
0.106981
0.112994
0.11833
0.120379
0.119116
0.103123
0.124327
0.143283
0.142114
0.108782
0.0468759
0.0684073
0.034886
0.0910485
0.10339
0.0568186
-0.00711294
-0.0251578
-0.0997128
-0.156617
-0.0740734
-0.0345124
-0.00669074
0.0437925
0.0725858
0.088962
0.0942977
0.0730656
0.0268018
-0.0625858
-0.0857898
-0.0280914
-0.00831988
0.0278388
0.0661648
0.103571
0.128063
0.139223
0.143363
0.131896
0.116482
0.117913
0.12137
0.125671
0.120718
0.044455
0.112447
0.175552