# vtk DataFile Version 4.0
Nusif Fluid VTK output
ASCII
DATASET STRUCTURED_POINTS
DIMENSIONS 40 30 1
ORIGIN 0 0 0 
SPACING 0.2 0.2 1
POINT_DATA 1200 

VECTORS velocity double
0.00835283 -0.00757712  0
0.0246941 -0.00726158  0
0.040061 -0.00665247  0
0.0539568 -0.00579202  0
0.0659336 -0.00473468  0
0.075658 -0.00354017  0
0.0829155 -0.00226825  0
0.0876081 -0.000975339  0
0.0897453 0.000287426  0
0.0894322 0.00147522  0
0.0868575 0.00254976  0
0.0822784 0.00348027  0
0.0760054 0.00424444  0
0.0683839 0.00482967  0
0.0597732 0.00523444  0
0.0505238 0.00546928  0
0.0409526 0.00555686  0
0.0313213 0.0055301  0
0.0218199 0.00542754  0
0.0125636 0.00528547  0
0.00360632 0.00512876  0
-0.00502936 0.00496402  0
-0.0133121 0.00477585  0
-0.0211652 0.00453422  0
-0.0284463 0.00420355  0
-0.0349462 0.00375274  0
-0.0404049 0.00316186  0
-0.0445367 0.00242532  0
-0.0470601 0.00155295  0
-0.0477297 0.000570859  0
-0.0463709 -0.000475949  0
-0.0429228 -0.00151905  0
-0.0374911 -0.0024601  0
-0.0304135 -0.00316543  0
-0.0223225 -0.00347389  0
-0.0141619 -0.00323538  0
-0.00707958 -0.0023959  0
-0.00212501 -0.00110785  0
0.000207995 0.000225522  0
0.000353895 0.0010792  0
0.00866788 -0.0230971  0
0.0256177 -0.022126  0
0.0415292 -0.0202556  0
0.0558731 -0.0176193  0
0.0681841 -0.0143871  0
0.0781231 -0.0107435  0
0.0854791 -0.00687114  0
0.0901627 -0.00294122  0
0.0921947 0.000891947  0
0.0916937 0.00449322  0
0.0888626 0.00774703  0
0.0839749 0.0105601  0
0.0773598 0.0128641  0
0.0693836 0.0146202  0
0.0604288 0.015823  0
0.050869 0.0165046  0
0.0410418 0.0167354  0
0.0312217 0.0166191  0
0.0216001 0.0162785  0
0.0122782 0.0158301  0
0.00328264 0.0153546  0
-0.00539949 0.0148737  0
-0.013769 0.0143361  0
-0.021768 0.0136433  0
-0.0292556 0.0126801  0
-0.0360102 0.011347  0
-0.0417493 0.00958114  0
-0.0461615 0.00736501  0
-0.0489397 0.00472914  0
-0.049816 0.00175394  0
-0.0485987 -0.00142238  0
-0.045217 -0.00459044  0
-0.0397755 -0.00745058  0
-0.0326184 -0.00959892  0
-0.0243866 -0.010553  0
-0.0160252 -0.00986837  0
-0.00867152 -0.00738943  0
-0.00335873 -0.0035724  0
-0.000577432 0.000384897  0
8.3974e-05 0.00292163  0
0.00932102 -0.0396395  0
0.0275285 -0.0379376  0
0.0445586 -0.034672  0
0.0598152 -0.0300899  0
0.0727995 -0.0244984  0
0.0831648 -0.0182227  0
0.0907096 -0.0115787  0
0.0953644 -0.00485747  0
0.0971743 0.0016812  0
0.0962844 0.0078103  0
0.0929264 0.0133351  0
0.087406 0.0180967  0
0.0800893 0.0219764  0
0.0713862 0.0249048  0
0.0617268 0.0268706  0
0.0515333 0.0279288  0
0.041186 0.0282045  0
0.0309879 0.0278873  0
0.0211331 0.027206  0
0.0116945 0.0263823  0
0.00263957 0.025572  0
-0.00612083 0.0248179  0
-0.0146567 0.0240161  0
-0.0229489 0.0229729  0
-0.0308596 0.021467  0
-0.0381389 0.0193117  0
-0.0444577 0.0163918  0
-0.0494503 0.0126762  0
-0.0527567 0.00821914  0
-0.054062 0.00316172  0
-0.0531383 -0.00225539  0
-0.0498926 -0.00766942  0
-0.044425 -0.0125655  0
-0.0370918 -0.0162594  0
-0.0285527 -0.0179487  0
-0.0197624 -0.0169097  0
-0.0118456 -0.0129041  0
-0.00580912 -0.00669241  0
-0.00213504 -0.000235911  0
-0.000451164 0.00391176  0
0.0103575 -0.0578795  0
0.0305533 -0.0553083  0
0.0493338 -0.0504035  0
0.0659988 -0.0435715  0
0.0800035 -0.0352972  0
0.0909982 -0.0260749  0
0.098805 -0.0163689  0
0.10339 -0.00659711  0
0.104838 0.00287319  0
0.103334 0.0117223  0
0.0991529 0.019674  0
0.0926459 0.0264972  0
0.0842368 0.0320141  0
0.074403 0.0361171  0
0.0636498 0.0387845  0
0.0524764 0.040096  0
0.0413317 0.0402436  0
0.0305646 0.0395282  0
0.0203756 0.0383236  0
0.0107918 0.0370019  0
0.00168387 0.03583  0
-0.00716462 0.0348833  0
-0.0159371 0.0339734  0
-0.0246766 0.0327614  0
-0.0332466 0.0308729  0
-0.0413498 0.0280016  0
-0.0485813 0.0239649  0
-0.05449 0.0187166  0
-0.0586332 0.01234  0
-0.0606227 0.00504711  0
-0.0601715 -0.00280482  0
-0.057148 -0.0106786  0
-0.0516418 -0.0178197  0
-0.0440257 -0.0232444  0
-0.0349903 -0.0258282  0
-0.0255112 -0.0245898  0
-0.0167035 -0.0192389  0
-0.00954289 -0.0108451  0
-0.00450133 -0.00208918  0
-0.00126297 0.00355249  0
0.0118447 -0.0786522  0
0.0348782 -0.074984  0
0.0561216 -0.068049  0
0.0747278 -0.0584944  0
0.0901029 -0.047051  0
0.101913 -0.0344224  0
0.110028 -0.0212395  0
0.114473 -0.0080519  0
0.115391 0.00466696  0
0.113022 0.0165073  0
0.10769 0.0271091  0
0.0998081 0.0361578  0
0.0898774 0.043401  0
0.0784706 0.0486792  0
0.0662009 0.0519542  0
0.0536764 0.0533336  0
0.0414424 0.0530942  0
0.0299123 0.0516848  0
0.019296 0.0496823  0
0.00955554 0.0476778  0
0.000419313 0.0461085  0
-0.00851582 0.0450984  0
-0.0175981 0.0443227  0
-0.0269565 0.0432192  0
-0.0364512 0.0411887  0
-0.0457141 0.0377601  0
-0.0542327 0.0326644  0
-0.0614384 0.0258387  0
-0.0667751 0.0174043  0
-0.0697532 0.00765666  0
-0.0699999 -0.00291322  0
-0.0673234 -0.0135647  0
-0.0617905 -0.0232676  0
-0.0537911 -0.0307074  0
-0.0440571 -0.03443  0
-0.0335964 -0.0332233  0
-0.0235184 -0.0267867  0
-0.0147648 -0.0165072  0
-0.00780224 -0.00572686  0
-0.00239388 0.00124788  0
0.0138615 -0.102939  0
0.0407172 -0.0978187  0
0.0652168 -0.0882605  0
0.0863209 -0.0752962  0
0.103402 -0.0600078  0
0.116182 -0.0433584  0
0.12462 -0.026158  0
0.128828 -0.00908697  0
0.129028 0.00728352  0
0.125524 0.0224645  0
0.118696 0.0360128  0
0.109025 0.0475092  0
0.0971108 0.0565971  0
0.0836588 0.0630451  0
0.0694287 0.0667921  0
0.0551707 0.0679826  0
0.0415507 0.0670039  0
0.0290593 0.0645019  0
0.0179149 0.0613311  0
0.00799341 0.0583962  0
-0.00116611 0.056391  0
-0.0102147 0.0555045  0
-0.0197129 0.0552016  0
-0.0298952 0.054585  0
-0.0406116 0.0527377  0
-0.051401 0.0489664  0
-0.0616157 0.0428939  0
-0.0705411 0.0344422  0
-0.0774825 0.0237801  0
-0.0818222 0.0112993  0
-0.083072 -0.00235917  0
-0.0809479 -0.0162195  0
-0.0754668 -0.0289274  0
-0.0670245 -0.0387902  0
-0.0563984 -0.0440082  0
-0.0446346 -0.0431708  0
-0.0328338 -0.0360193  0
-0.0218998 -0.0242634  0
-0.0123061 -0.011828  0
-0.00393504 -0.00373157  0
0.0164731 -0.131865  0
0.0482388 -0.12476  0
0.0768233 -0.111712  0
0.100952 -0.0943861  0
0.120018 -0.0743731  0
0.133874 -0.0529386  0
0.142617 -0.031065  0
0.146476 -0.00955364  0
0.145776 0.0109439  0
0.140891 0.0298884  0
0.132241 0.0467622  0
0.120368 0.0610003  0
0.106003 0.0720831  0
0.0900322 0.0796793  0
0.0734111 0.0837078  0
0.057063 0.0843722  0
0.0417854 0.0822116  0
0.0281402 0.078131  0
0.0163378 0.073349  0
0.00614446 0.0691935  0
-0.0031249 0.0667227  0
-0.0124088 0.0662052  0
-0.0225044 0.0667943  0
-0.0337577 0.0671268  0
-0.0460077 0.0658606  0
-0.0586924 0.0620153  0
-0.071017 0.0550812  0
-0.0821094 0.044969  0
-0.0911253 0.0319062  0
-0.0973014 0.0163841  0
-0.100001 -0.000800226  0
-0.0987915 -0.0184179  0
-0.09358 -0.0347281  0
-0.0847318 -0.0475867  0
-0.0730621 -0.0548143  0
-0.059655 -0.0548426  0
-0.0455849 -0.0475253  0
-0.0316972 -0.0348861  0
-0.0184941 -0.0213089  0
-0.00605134 -0.0123714  0
0.0197115 -0.166654  0
0.0575021 -0.15679  0
0.0909251 -0.139006  0
0.118447 -0.116059  0
0.139631 -0.0902645  0
0.154585 -0.0631721  0
0.16358 -0.0358825  0
0.166985 -0.00931239  0
0.165246 0.0158291  0
0.158808 0.0390167  0
0.148085 0.0596967  0
0.133642 0.0770722  0
0.116378 0.0903323  0
0.0974553 0.0990158  0
0.0780867 0.103054  0
0.059391 0.102764  0
0.0422792 0.0989043  0
0.0273382 0.0927197  0
0.0147201 0.0858759  0
0.00405075 0.0802246  0
-0.00558256 0.0772894  0
-0.0153792 0.0774138  0
-0.0263389 0.0793353  0
-0.0389157 0.0811096  0
-0.0529647 0.0808698  0
-0.0678558 0.0772741  0
-0.0826651 0.0696475  0
-0.096375 0.0578956  0
-0.108007 0.0423174  0
-0.11666 0.0234904  0
-0.121506 0.00232745  0
-0.12185 -0.0197222  0
-0.117355 -0.0404429  0
-0.108289 -0.057099  0
-0.0955092 -0.0670644  0
-0.0801363 -0.0686854  0
-0.0631602 -0.0620416  0
-0.0453013 -0.0494294  0
-0.0271128 -0.0354701  0
-0.0089998 -0.0260789  0
0.0236073 -0.208589  0
0.0685167 -0.194833  0
0.107276 -0.170468  0
0.13816 -0.140325  0
0.161297 -0.10764  0
0.177231 -0.074004  0
0.186369 -0.0405036  0
0.189186 -0.0082319  0
0.18631 0.0220461  0
0.178264 0.0499677  0
0.165331 0.0750853  0
0.147968 0.0961745  0
0.127342 0.111806  0
0.105088 0.121405  0
0.0827671 0.125043  0
0.0616777 0.123249  0
0.0427775 0.11712  0
0.0265709 0.108341  0
0.0130424 0.0990908  0
0.00162711 0.0917845  0
-0.00876204 0.0884419  0
-0.0194421 0.0894276  0
-0.0315 0.0930281  0
-0.045511 0.0966928  0
-0.061449 0.097961  0
-0.0787132 0.0950248  0
-0.0963001 0.0869786  0
-0.113077 0.0737362  0
-0.12798 0.055696  0
-0.140008 0.0334744  0
-0.148084 0.00794794  0
-0.151011 -0.0193894  0
-0.14796 -0.0456401  0
-0.139071 -0.067176  0
-0.125307 -0.0808502  0
-0.107799 -0.0850994  0
-0.0872919 -0.0804303  0
-0.0642052 -0.0693053  0
-0.0391537 -0.0561529  0
-0.0131217 -0.0468598  0
0.028231 -0.259057  0
0.0812947 -0.239633  0
0.12527 -0.205732  0
0.158684 -0.166688  0
0.183233 -0.126291  0
0.199947 -0.0853263  0
0.209048 -0.0447451  0
0.211034 -0.00611895  0
0.206871 0.0296496  0
0.197264 0.0626943  0
0.182055 0.0931786  0
0.161204 0.118973  0
0.13644 0.137079  0
0.110419 0.147089  0
0.0851563 0.149626  0
0.0620034 0.145592  0
0.0417973 0.136568  0
0.0247741 0.124809  0
0.0105813 0.11303  0
-0.00161357 0.104141  0
-0.0129507 0.100497  0
-0.0245933 0.10238  0
-0.0375604 0.107785  0
-0.0526489 0.113719  0
-0.0701841 0.11709  0
-0.0897689 0.115426  0
-0.110355 0.107431  0
-0.130668 0.0930527  0
-0.149597 0.0728893  0
-0.166142 0.04753  0
-0.178955 0.0174572  0
-0.185897 -0.0163547  0
-0.185305 -0.0496426  0
-0.177389 -0.0773035  0
-0.163391 -0.0958096  0
-0.1442 -0.104164  0
-0.119847 -0.103551  0
-0.0901128 -0.0963304  0
-0.0557326 -0.0858845  0
-0.0187869 -0.0774308  0
0.0333918 -0.319323  0
0.0948932 -0.291244  0
0.142165 -0.242705  0
0.175831 -0.19413  0
0.201411 -0.146312  0
0.219302 -0.0972427  0
0.228438 -0.0483956  0
0.229312 -0.00265965  0
0.223672 0.0386644  0
0.212713 0.076916  0
0.195139 0.114412  0
0.16935 0.147053  0
0.138538 0.167251  0
0.107925 0.176227  0
0.0800301 0.176324  0
0.0557759 0.168981  0
0.035487 0.156354  0
0.0188686 0.141344  0
0.00510669 0.127129  0
-0.00693112 0.116954  0
-0.018299 0.113068  0
-0.0297639 0.115595  0
-0.0422605 0.122712  0
-0.0570956 0.131394  0
-0.0753486 0.137881  0
-0.0970394 0.138587  0
-0.120906 0.131398  0
-0.145156 0.116322  0
-0.168516 0.0945806  0
-0.190361 0.0668989  0
-0.209657 0.0328664  0
-0.222538 -0.00927228  0
-0.225851 -0.0513351  0
-0.220715 -0.0859947  0
-0.208846 -0.110317  0
-0.190066 -0.124959  0
-0.162589 -0.131918  0
-0.124811 -0.132806  0
-0.0778796 -0.128051  0
-0.0262689 -0.121152  0
0.0376851 -0.389056  0
0.104474 -0.34713  0
0.147922 -0.274883  0
0.176916 -0.221954  0
0.205516 -0.170006  0
0.227694 -0.110955  0
0.238301 -0.0517617  0
0.238611 0.0021866  0
0.231938 0.0487958  0
0.220473 0.0918728  0
0.200543 0.139625  0
0.166272 0.184567  0
0.1249 0.20459  0
0.0882784 0.208793  0
0.0587097 0.203894  0
0.0353685 0.19168  0
0.0172385 0.174748  0
0.00321584 0.156267  0
-0.00763603 0.139496  0
-0.0164597 0.128125  0
-0.0242852 0.123767  0
-0.0317435 0.126495  0
-0.0401416 0.135381  0
-0.0518826 0.147974  0
-0.069385 0.159728  0
-0.0932056 0.164921  0
-0.121024 0.159417  0
-0.149087 0.143282  0
-0.175325 0.119885  0
-0.200787 0.0915654  0
-0.228587 0.0579578  0
-0.251126 0.00371897  0
-0.260627 -0.0488505  0
-0.261372 -0.0902083  0
-0.255965 -0.120716  0
-0.242188 -0.144453  0
-0.214967 -0.16446  0
-0.169017 -0.181329  0
-0.105748 -0.187065  0
-0.0353721 -0.181461  0
0.0357728 -0.461846  0
0.0941344 -0.398159  0
0.122053 -0.293894  0
0.141532 -0.25009  0
0.178227 -0.20517  0
0.212371 -0.129453  0
0.227979 -0.05682  0
0.230907 0.00666603  0
0.226174 0.0583804  0
0.21665 0.105935  0
0.19528 0.169521  0
0.144738 0.242143  0
0.0839457 0.251841  0
0.0414135 0.243362  0
0.0129401 0.230034  0
-0.00635041 0.210841  0
-0.0194373 0.189475  0
-0.0284465 0.167243  0
-0.0325891 0.146186  0
-0.0321112 0.132452  0
-0.028855 0.12668  0
-0.0245206 0.129377  0
-0.022053 0.141099  0
-0.026017 0.160628  0
-0.041076 0.182301  0
-0.0682831 0.19604  0
-0.102115 0.192611  0
-0.133281 0.171979  0
-0.156306 0.143112  0
-0.175849 0.116  0
-0.21601 0.10414  0
-0.258637 0.0253581  0
-0.276531 -0.0404389  0
-0.284644 -0.087106  0
-0.28795 -0.123263  0
-0.283143 -0.157833  0
-0.263647 -0.195139  0
-0.216056 -0.241534  0
-0.135654 -0.267872  0
-0.0442608 -0.259766  0
-0.00266269 -0.24881  0
-0.00506358 -0.210374  0
0.0437988 -0.149612  0
0.125324 -0.245645  0
0.158248 -0.22705  0
0.169691 -0.151831  0
0.188743 -0.0677743  0
0.200221 0.00454192  0
0.204187 0.0625994  0
0.200167 0.116587  0
0.181109 0.200625  0
0.0967509 0.347267  0
0.00711258 0.299144  0
-0.0245562 0.272924  0
-0.0488329 0.255887  0
-0.0651985 0.223311  0
-0.0717457 0.199307  0
-0.0756766 0.17302  0
-0.0697422 0.141286  0
-0.0523053 0.122105  0
-0.0284105 0.112543  0
-0.00194259 0.115377  0
0.0205879 0.132766  0
0.0306196 0.165558  0
0.0195397 0.206173  0
-0.0142616 0.235838  0
-0.0593563 0.234399  0
-0.0991323 0.203789  0
-0.11376 0.151608  0
-0.097702 0.113641  0
-0.15082 0.201766  0
-0.236515 0.0573793  0
-0.262434 -0.02732  0
-0.273723 -0.0794975  0
-0.278174 -0.121788  0
-0.27501 -0.165951  0
-0.26331 -0.21689  0
-0.231825 -0.297532  0
-0.151213 -0.370895  0
-0.0469975 -0.35036  0
0 0  0
0 0  0
0 0  0
0.0791238 -0.113525  0
0.12636 -0.113525  0
0.0938575 -0.0816371  0
0.10677 -0.0376911  0
0.131278 0.000335747  0
0.144172 0.0312521  0
0.123635 0.0603508  0
0.0331194 0.107785  0
0.0206601 0.368357  0
0.0762666 0.320034  0
0.0354294 0.325871  0
-0.0578568 0.3225  0
-0.108363 0.226233  0
-0.110365 0.207598  0
-0.117635 0.178594  0
-0.10422 0.119027  0
-0.0671251 0.092496  0
-0.0203664 0.0741618  0
0.0323237 0.0772633  0
0.0799088 0.103426  0
0.107469 0.159967  0
0.0986256 0.234347  0
0.0570155 0.285732  0
0.00421252 0.285056  0
-0.0778291 0.276939  0
-0.140978 0.15756  0
-0.148383 0.100362  0
-0.0867257 0.184594  0
-0.092084 0.0380075  0
-0.186681 -0.0100183  0
-0.22307 -0.0377462  0
-0.23114 -0.0606709  0
-0.223191 -0.0847801  0
-0.187627 -0.11249  0
-0.118045 -0.374187  0
-0.076816 -0.427448  0
-0.038408 -0.412403  0
0 0  0
0 0  0
0 0  0
0 0  0
0 0  0
0 0  0
0 0  0
0 0  0
0 0  0
0 0  0
0 0  0
0.0381333 0.160017  0
0.0529294 0.160017  0
0.0103103 0.371162  0
-0.0089716 0.375615  0
-0.0248759 0.240859  0
-0.0636581 0.235753  0
-0.106888 0.203602  0
-0.100772 0.0771491  0
-0.0530953 0.0522615  0
-0.00232573 0.0195277  0
0.0575162 0.0220247  0
0.117164 0.0540904  0
0.157313 0.144253  0
0.131329 0.287544  0
0.0690703 0.338395  0
0.043576 0.312016  0
0.0388603 0.32235  0
-0.0248172 0.0824826  0
-0.116081 0.0501808  0
-0.0741913 0.0501808  0
0 0  0
0 0  0
0 0  0
0 0  0
0 0  0
0 0  0
-0.038408 -0.213724  0
-0.076816 -0.213724  0
-0.038408 -0.213724  0
0 0  0
0 0  0
0 0  0
0 0  0
0 0  0
0 0  0
0 0  0
0 0  0
0 0  0
0 0  0
0 0  0
0 0  0
0 0  0
-0.0044858 0.187808  0
0.0504543 0.187808  0
0.0628244 0.25803  0
0.0157686 0.259297  0
0.014057 0.226331  0
0.0130774 0.050614  0
0.0208969 0.0246292  0
0.0328227 -0.0142064  0
0.0413577 -0.0112893  0
0.0462358 0.0242067  0
0.0475571 0.133995  0
0.0476971 0.324972  0
0.0715729 0.344431  0
0.0695124 0.156008  0
0.021788 0.156008  0
0 0  0
0 0  0
0 0  0
0 0  0
0 0  0
0 0  0
0 0  0
0 0  0
0 0  0
0 0  0
0 0  0
0 0  0
0 0  0
0 0  0
0 0  0
0 0  0
0 0  0
0 0  0
0 0  0
0 0  0
0 0  0
0 0  0
0 0  0
0 0  0
0 0  0
0 0  0
0 0  0
0.00788432 0.129648  0
0.0313958 0.129648  0
0.118764 0.114021  0
0.118328 0.0249411  0
0.0553603 0.00877076  0
0.0490865 -0.0095223  0
0.0203227 -0.007493  0
-0.0281848 0.0115127  0
-0.103416 0.0669276  0
-0.0478614 0.162486  0
0.0238486 0.162486  0
0 0  0
0 0  0
0 0  0
0 0  0
0 0  0
0 0  0
0 0  0
0 0  0
0 0  0
0 0  0
0 0  0
0 0  0
0 0  0
0 0  0
0 0  0
0 0  0
0 0  0
0 0  0
0 0  0
0 0  0
0 0  0
0 0  0
0 0  0
0 0  0
0 0  0
0 0  0
0 0  0
0 0  0
0 0  0
0 0  0
0 0  0
0 0  0
0 0  0
0 0  0
0 0  0
0 0  0
0 0  0
0 0  0
0 0  0
0 0  0
0 0  0
0 0  0
0 0  0
0 0  0
0 0  0
0 0  0
0 0  0
0 0  0
0 0  0
0 0  0
0 0  0
0 0  0
0 0  0
0 0  0
0 0  0
0 0  0
0 0  0
0 0  0
0 0  0
0 0  0
0 0  0
0 0  0
0 0  0
0 0  0
0 0  0
0 0  0
0 0  0
0 0  0
0 0  0
0 0  0
0 0  0
0 0  0
0 0  0
0 0  0
0 0  0
0 0  0
0 0  0
0 0  0
0 0  0
0 0  0
0 0  0
0 0  0
0 0  0
0 0  0
0 0  0
0 0  0
0 0  0
0 0  0
0 0  0
0 0  0
0 0  0
0 0  0
0 0  0
0 0  0
0 0  0
0 0  0
0 0  0
0 0  0
0 0  0
0 0  0
0 0  0
0 0  0
0 0  0
0 0  0
0 0  0
0 0  0
0 0  0
0 0  0
0 0  0
0 0  0
0 0  0
0 0  0
0 0  0
0 0  0
0 0  0
0 0  0
0 0  0
0 0  0
0 0  0
0 0  0
0 0  0
0 0  0
0 0  0
0 0  0
0 0  0
0 0  0
0 0  0
0 0  0
0 0  0
0 0  0
0 0  0
0 0  0
0 0  0
0 0  0
0 0  0
0 0  0
0 0  0
0 0  0
0 0  0
0 0  0
0 0  0
0 0  0
0 0  0
0 0  0
0 0  0
0 0  0
0 0  0
0 0  0
0 0  0
0 0  0
0 0  0
0 0  0
0 0  0
0 0  0
0 0  0
0 0  0
0 0  0
0 0  0
0 0  0
0 0  0
0 0  0
0 0  0
0 0  0
0 0  0
0 0  0
0 0  0
0 0  0
0 0  0
0 0  0
0 0  0
0 0  0
0 0  0
0 0  0
0 0  0
0 0  0
0 0  0
0 0  0
0 0  0
0 0  0
0 0  0
0 0  0
0 0  0
0 0  0
0 0  0
0 0  0
0 0  0
0 0  0
0 0  0
0 0  0
0 0  0
0 0  0
0 0  0
0 0  0
0 0  0
0 0  0
0 0  0
0 0  0
0 0  0
0 0  0
0 0  0
0 0  0
0 0  0
0 0  0
0 0  0
0 0  0
0 0  0
0 0  0
0 0  0
0 0  0
0 0  0
0 0  0
0 0  0
0 0  0
0 0  0
0 0  0
0 0  0
0 0  0
0 0  0
0 0  0
0 0  0
0 0  0
0 0  0
0 0  0
0 0  0
0 0  0
0 0  0
0 0  0
0 0  0
0 0  0
0 0  0
0 0  0
0 0  0
0 0  0
0 0  0
0 0  0
0 0  0
0 0  0
0 0  0
0 0  0
0 0  0
0 0  0
0 0  0
0 0  0
0 0  0
0 0  0
0 0  0
0 0  0
0 0  0
0 0  0
0 0  0
0 0  0
0 0  0
0 0  0
0 0  0
0 0  0
0 0  0
0 0  0
0 0  0
0 0  0
0 0  0
0 0  0
0 0  0
0 0  0
0 0  0
0 0  0
0 0  0
0 0  0
0 0  0
0 0  0
0 0  0
0 0  0
0 0  0
0 0  0
0 0  0
0 0  0
0 0  0
0 0  0
0 0  0
0 0  0
0 0  0
0 0  0
0 0  0
0 0  0
0 0  0
0 0  0
0 0  0
0 0  0
0 0  0
0 0  0
0 0  0
0 0  0
0 0  0
0 0  0
0 0  0
0 0  0
0 0  0
0 0  0
0 0  0
0 0  0
0 0  0
0 0  0
0 0  0
0 0  0
0 0  0
0 0  0
0 0  0
0 0  0
0 0  0
0 0  0
0 0  0
0 0  0
0 0  0
0 0  0
0 0  0
0 0  0
0 0  0
0 0  0
0 0  0
0 0  0
0 0  0
0 0  0
0 0  0
0 0  0
0 0  0
0 0  0
0 0  0
0 0  0
0 0  0
0 0  0
0 0  0
0 0  0
0 0  0
0 0  0
0 0  0
0 0  0
0 0  0
0 0  0
0 0  0
0 0  0
0 0  0
0 0  0
0 0  0
0 0  0
0 0  0
0 0  0
0 0  0
0 0  0
0 0  0
0 0  0
0 0  0
0 0  0
0 0  0
0 0  0
0 0  0
0 0  0
0 0  0
0 0  0
0 0  0
0 0  0
0 0  0
0 0  0
0 0  0
0 0  0
0 0  0
0 0  0
0 0  0
0 0  0
0 0  0
0 0  0
0 0  0
0 0  0
0 0  0
0 0  0
0 0  0
0 0  0
0 0  0
0 0  0
0 0  0
0 0  0
0 0  0
0 0  0
0 0  0
0 0  0
0 0  0
0 0  0
0 0  0
0 0  0
0 0  0
0 0  0
0 0  0
0 0  0
0 0  0
0 0  0
0 0  0
0 0  0
0 0  0
0 0  0
0 0  0
0 0  0
0 0  0
0 0  0
0 0  0
0 0  0
0 0  0
0 0  0
0 0  0
0 0  0
0 0  0
0 0  0
0 0  0
0 0  0
0 0  0
0 0  0
0 0  0
0 0  0
0 0  0
0 0  0
0 0  0
0 0  0
0 0  0
0 0  0
0 0  0
0 0  0
0 0  0
0 0  0
0 0  0
0 0  0
0 0  0
0 0  0
0 0  0
0 0  0
0 0  0
0 0  0
0 0  0
0 0  0
0 0  0
0 0  0
0 0  0
0 0  0
0 0  0
0 0  0
0 0  0
0 0  0
0 0  0
0 0  0
0 0  0
0 0  0
0 0  0
0 0  0
0 0  0
0 0  0
0 0  0
0 0  0
0 0  0
0 0  0
0 0  0
0 0  0
0 0  0
0 0  0
0 0  0
0 0  0
0 0  0
0 0  0
0 0  0
0 0  0
0 0  0
0 0  0
0 0  0
0 0  0
0 0  0
0 0  0
0 0  0
0 0  0
0 0  0
0 0  0
0 0  0
0 0  0
0 0  0
0 0  0
0 0  0
0 0  0
0 0  0
0 0  0
0 0  0
0 0  0
0 0  0
0 0  0
0 0  0
0 0  0
0 0  0
0 0  0
0 0  0
0 0  0
0 0  0

SCALARS pressure double 1
LOOKUP_TABLE default
2.76276
2.76456
2.76797
2.77294
2.77947
2.78747
2.79688
2.80754
2.81927
2.83185
2.84501
2.85845
2.87184
2.88486
2.89718
2.9085
2.91856
2.92714
2.93407
2.93923
2.94256
2.94403
2.94368
2.94163
2.938
2.93299
2.92683
2.91978
2.91212
2.90414
2.89609
2.88822
2.88073
2.87378
2.8675
2.86204
2.85751
2.85403
2.85169
2.85052
2.5598
2.56165
2.56514
2.57025
2.57693
2.58513
2.59474
2.60563
2.61761
2.63045
2.64389
2.65762
2.67131
2.68461
2.6972
2.70876
2.71903
2.72777
2.73481
2.74003
2.74338
2.74481
2.74438
2.74219
2.73838
2.73316
2.72675
2.71944
2.71151
2.70325
2.69496
2.68686
2.67916
2.67203
2.66561
2.66004
2.65544
2.65192
2.64956
2.64838
2.35372
2.35566
2.35933
2.36468
2.37168
2.38026
2.39031
2.40166
2.41414
2.42751
2.44151
2.45582
2.47009
2.48398
2.49712
2.50917
2.51986
2.52894
2.53622
2.54158
2.54497
2.54633
2.54573
2.54328
2.53912
2.53346
2.52656
2.51871
2.51023
2.50144
2.49264
2.48407
2.47596
2.46849
2.46179
2.45601
2.45128
2.44769
2.4453
2.44411
2.14432
2.1464
2.15032
2.15606
2.16357
2.17274
2.18344
2.19551
2.20874
2.22292
2.23777
2.25297
2.26816
2.28295
2.29694
2.30977
2.32112
2.33072
2.33838
2.34396
2.34741
2.34867
2.34781
2.34495
2.34024
2.33391
2.32624
2.31757
2.30824
2.29861
2.28903
2.27976
2.27104
2.26305
2.25595
2.24988
2.24497
2.24129
2.23888
2.23769
1.93128
1.93356
1.93786
1.94415
1.95236
1.96237
1.97399
1.98702
2.00127
2.01654
2.03256
2.049
2.06546
2.0815
2.0967
2.11062
2.12289
2.13323
2.14142
2.14732
2.15085
2.15197
2.15076
2.14733
2.14185
2.13458
2.12583
2.11598
2.10545
2.09466
2.08399
2.07376
2.06421
2.05555
2.04794
2.04153
2.03643
2.03269
2.03029
2.02912
1.71415
1.71669
1.72149
1.72854
1.73774
1.74888
1.76171
1.776
1.79154
1.80819
1.8257
1.84374
1.86188
1.87961
1.89643
1.91181
1.92534
1.93667
1.94556
1.95187
1.95551
1.95645
1.95477
1.95058
1.94407
1.93553
1.92532
1.91389
1.90175
1.88939
1.87729
1.8658
1.85521
1.84574
1.83755
1.83079
1.82554
1.82182
1.8195
1.81839
1.49225
1.49513
1.50059
1.50867
1.51924
1.53193
1.54634
1.56217
1.57927
1.59757
1.6169
1.63696
1.65727
1.67722
1.69616
1.71347
1.72863
1.74125
1.75106
1.7579
1.76169
1.76239
1.7601
1.75492
1.74707
1.73686
1.72473
1.71122
1.69694
1.68252
1.66855
1.6555
1.64366
1.63326
1.62447
1.61741
1.61214
1.60858
1.60648
1.60551
1.26464
1.26792
1.27422
1.28374
1.2963
1.31115
1.3276
1.34526
1.36411
1.38427
1.40573
1.42828
1.45137
1.47422
1.49595
1.51577
1.53304
1.54731
1.55828
1.56578
1.56974
1.57015
1.56708
1.56065
1.55107
1.5387
1.52405
1.5078
1.49072
1.47361
1.45724
1.44225
1.42895
1.41756
1.40823
1.40105
1.396
1.39286
1.39118
1.39044
1.02999
1.03372
1.04105
1.05261
1.06825
1.08626
1.10534
1.12505
1.14568
1.16771
1.19154
1.21713
1.24383
1.27049
1.29588
1.31896
1.33893
1.35526
1.36766
1.37597
1.38012
1.38017
1.37615
1.36817
1.3564
1.34124
1.32331
1.30346
1.28269
1.26203
1.24252
1.22512
1.21017
1.19784
1.18819
1.1812
1.17677
1.17446
1.17352
1.17309
0.786586
0.79069
0.799104
0.813576
0.834521
0.857423
0.87982
0.901548
0.923576
0.947139
0.973348
1.00261
1.03412
1.06588
1.09614
1.12343
1.1468
1.16567
1.17976
1.189
1.19339
1.19302
1.18789
1.17801
1.16351
1.14477
1.12256
1.09797
1.07231
1.0469
1.02317
1.00269
0.985985
0.972966
0.963406
0.957131
0.953889
0.953012
0.953216
0.953062
0.532247
0.536487
0.54568
0.563779
0.595273
0.62599
0.652216
0.675267
0.697554
0.721531
0.749598
0.78327
0.821609
0.860392
0.897119
0.929805
0.957377
0.979256
0.995269
1.0055
1.01016
1.00936
1.00302
0.990954
0.973106
0.949807
0.922
0.891156
0.859086
0.827178
0.797419
0.772972
0.754628
0.741491
0.7327
0.727775
0.726384
0.727693
0.729734
0.729245
0.264658
0.268976
0.278084
0.296992
0.353767
0.396382
0.425428
0.44758
0.467662
0.489572
0.517644
0.556286
0.60576
0.654253
0.699631
0.738997
0.771602
0.796916
0.814923
0.826158
0.831124
0.829979
0.822485
0.808085
0.786273
0.757184
0.722082
0.682997
0.642939
0.602241
0.562675
0.533353
0.514184
0.502105
0.494905
0.491728
0.492441
0.49657
0.502395
0.49873
-0.0185195
-0.0115037
-0.00178637
-0.00883444
0.125463
0.179602
0.204875
0.220967
0.234583
0.249823
0.27273
0.314612
0.387242
0.447942
0.505161
0.552187
0.590561
0.619605
0.639628
0.651764
0.657043
0.655738
0.647378
0.630758
0.604471
0.568084
0.523635
0.473502
0.425338
0.373969
0.314059
0.280407
0.263483
0.254732
0.249864
0.247858
0.24922
0.254675
0.273008
0.254247
0
0
0
0
-0.023671
-0.00560697
-0.00370248
-0.00186866
-2.07552e-05
0.00200243
0.00710724
0.0340633
0.174396
0.240298
0.316652
0.370311
0.415688
0.448613
0.470219
0.48285
0.488384
0.487124
0.478425
0.460041
0.429205
0.383583
0.328306
0.260708
0.210719
0.152112
0.0332671
0.00902847
0.00357727
0.00203632
0.000283816
-0.00173605
-0.00358883
-0.0123667
0.0622395
-0.0247976
0
0
0
0
0
0
0
0
0
0
0
0
0.0271471
0.0190356
0.144652
0.192818
0.249848
0.28527
0.306738
0.318707
0.324125
0.323449
0.315241
0.296138
0.261146
0.201704
0.142445
0.0273788
0.00351002
-0.0133498
0
0
0
0
0
0
0
0
0
0
0
0
0
0
0
0
0
0
0
0
0
0
0
0
0.0407839
0.00644268
0.103475
0.132189
0.148424
0.156942
0.161205
0.161404
0.155091
0.138732
0.106496
0.0116336
0.00245907
0
0
0
0
0
0
0
0
0
0
0
0
0
0
0
0
0
0
0
0
0
0
0
0
0
0
0
0
0
0.0236265
0.000755938
-0.000247174
-0.00354657
-0.00238751
-0.00182685
-0.00049755
-3.40252e-05
0.014375
0
0
0
0
0
0
0
0
0
0
0
0
0
0
0
0
0
0
0
0
0
0
0
0
0
0
0
0
0
0
0
0
0
0
0
0
0
0
0
0
0
0
0
0
0
0
0
0
0
0
0
0
0
0
0
0
0
0
0
0
0
0
0
0
0
0
0
0
0
0
0
0
0
0
0
0
0
0
0
0
0
0
0
0
0
0
0
0
0
0
0
0
0
0
0
0
0
0
0
0
0
0
0
0
0
0
0
0
0
0
0
0
0
0
0
0
0
0
0
0
0
0
0
0
0
0
0
0
0
0
0
0
0
0
0
0
0
0
0
0
0
0
0
0
0
0
0
0
0
0
0
0
0
0
0
0
0
0
0
0
0
0
0
0
0
0
0
0
0
0
0
0
0
0
0
0
0
0
0
0
0
0
0
0
0
0
0
0
0
0
0
0
0
0
0
0
0
0
0
0
0
0
0
0
0
0
0
0
0
0
0
0
0
0
0
0
0
0
0
0
0
0
0
0
0
0
0
0
0
0
0
0
0
0
0
0
0
0
0
0
0
0
0
0
0
0
0
0
0
0
0
0
0
0
0
0
0
0
0
0
0
0
0
0
0
0
0
0
0
0
0
0
0
0
0
0
0
0
0
0
0
0
0
0
0
0
0
0
0
0
0
0
0
0
0
0
0
0
0
0
0
0
0
0
0
0
0
0
0
0
0
0
0
0
0
0
0
0
0
0
0
0
0
0
0
0
0
0
0
0
0
0
0
0
0
0
0
0
0
0
0
0
0
0
0
0
0
0
0
0
0
0
0
0
0
0
0
0
0
0
0
0
0
0
0
0
0
0
0
0
0
0
0
0
0
0
0
0
0
0
0
0
0
0
0
0
0
0
0
0
0
0
0
0
0
0
0
0
0
0
0
0
0
0
0
0
0
0
0
0
0
0
0
0
0
0
0
0
0
0
0
0
0
0
0
0
0
0
0
0
0
0
0
0
0
0
0
0
0
0
0
0
0
0
0
0
0
0
0
0
0
0
0
0
0
0
0
0
0
0
0
0
0
0
0
0
0
0
0
0
0
0
0
0
0
0
0
0
0
0
0
0
0
0
0
0
0
0
0
0
0
0
0
0
0
0
0
0
0
0
0
0
0
0
0
0
0
0
0
0
0
0
0
0
0
0
0
0
0
0
0
0
0
0
0
0
0
0
0
0
0
0
0
0
0
SCALARS rhs double 1
LOOKUP_TABLE default
-4.91925
-4.97217
-4.97156
-4.96979
-4.96763
-4.96548
-4.96368
-4.96243
-4.96176
-4.96162
-4.96187
-4.96235
-4.96292
-4.96345
-4.96383
-4.96402
-4.96402
-4.96388
-4.96367
-4.96346
-4.96384
-4.96355
-4.96309
-4.96303
-4.96294
-4.96279
-4.96262
-4.9625
-4.96254
-4.96284
-4.96354
-4.96461
-4.96592
-4.96712
-4.96771
-4.96737
-4.96631
-4.96531
-4.96498
-4.96505
0.026941
-0.0231964
-0.0218379
-0.0195704
-0.0170971
-0.0147784
-0.0128907
-0.0116002
-0.0107952
-0.010702
-0.0111635
-0.0119362
-0.0128313
-0.0136746
-0.0143332
-0.0147331
-0.0148656
-0.0147798
-0.0145609
-0.0142984
-0.0146432
-0.0141697
-0.0135954
-0.0133438
-0.0129883
-0.0125206
-0.0119856
-0.0114802
-0.0111351
-0.0110821
-0.011585
-0.0122853
-0.013165
-0.0138817
-0.0140113
-0.0133247
-0.0121002
-0.0110689
-0.0107682
-0.0108809
0.0204675
-0.0273281
-0.0257823
-0.0233111
-0.0206475
-0.0181565
-0.016121
-0.0147045
-0.0136198
-0.0134001
-0.0137737
-0.0144592
-0.0152634
-0.016007
-0.0165494
-0.016814
-0.0167947
-0.0165528
-0.0161945
-0.015836
-0.0162425
-0.0156663
-0.0152701
-0.0151501
-0.0149262
-0.0145764
-0.0141427
-0.0137245
-0.0134552
-0.0134646
-0.0141272
-0.0148407
-0.0156033
-0.0160715
-0.0158377
-0.0147671
-0.0132833
-0.0122131
-0.012024
-0.012271
0.0120053
-0.0330446
-0.0311674
-0.0283402
-0.0253345
-0.022546
-0.0202568
-0.0186242
-0.0170914
-0.0167184
-0.016944
-0.0174825
-0.018131
-0.0186995
-0.0190392
-0.0190681
-0.0187871
-0.0182779
-0.0176826
-0.0171606
-0.0176468
-0.0169335
-0.0168309
-0.0169423
-0.0169539
-0.0168201
-0.0165753
-0.0163217
-0.0161966
-0.0163257
-0.0171915
-0.0179689
-0.0185477
-0.0186206
-0.0178136
-0.0161486
-0.0142816
-0.013186
-0.0132033
-0.0135776
0.000550464
-0.0414201
-0.0389436
-0.0354807
-0.0318816
-0.0285914
-0.0258941
-0.0239277
-0.0217149
-0.021189
-0.0212039
-0.0215286
-0.0219412
-0.0222346
-0.0222501
-0.0219047
-0.0212135
-0.0202931
-0.0193384
-0.0185693
-0.019142
-0.0182672
-0.0185921
-0.0190645
-0.0194541
-0.0196757
-0.0197475
-0.0197722
-0.0198917
-0.0202251
-0.0213539
-0.022295
-0.0225985
-0.0220716
-0.0204047
-0.0178711
-0.015483
-0.014428
-0.0149149
-0.0155627
-0.014997
-0.0536003
-0.0500206
-0.0453931
-0.0407604
-0.0366405
-0.0333063
-0.0308555
-0.0277028
-0.0270731
-0.0268312
-0.0268806
-0.026959
-0.0268369
-0.0263506
-0.0254309
-0.0241293
-0.0226199
-0.0211675
-0.0201825
-0.0204951
-0.0197858
-0.0205658
-0.0215633
-0.0225284
-0.0233107
-0.0238935
-0.0243748
-0.0249031
-0.0255892
-0.0270802
-0.0283996
-0.0283144
-0.0268948
-0.0239531
-0.0201682
-0.0171016
-0.0162546
-0.0175564
-0.0186722
-0.0361388
-0.0710784
-0.0654039
-0.0586326
-0.0522102
-0.0467552
-0.0424696
-0.03908
-0.0353857
-0.0345021
-0.0340356
-0.0338025
-0.0334479
-0.0327246
-0.0314899
-0.0297238
-0.0275593
-0.0252667
-0.0231965
-0.0220441
-0.0218248
-0.0215047
-0.0227704
-0.0244749
-0.0262715
-0.027903
-0.029283
-0.0304961
-0.0317094
-0.0330282
-0.0349724
-0.0372175
-0.0366282
-0.0339024
-0.0290924
-0.0235494
-0.0196787
-0.0194232
-0.022218
-0.0239052
-0.0647851
-0.0955716
-0.0858346
-0.0751612
-0.0657619
-0.0582837
-0.0526609
-0.0478504
-0.0443462
-0.0431304
-0.042679
-0.0423213
-0.0414786
-0.0399442
-0.0376705
-0.0347444
-0.0314512
-0.0282158
-0.0254818
-0.0243401
-0.0233081
-0.0234158
-0.0251772
-0.0277416
-0.0306596
-0.0335027
-0.0360574
-0.0383941
-0.0407415
-0.0432251
-0.0456933
-0.0500238
-0.0488648
-0.0442996
-0.036884
-0.0290884
-0.0245528
-0.025762
-0.0312532
-0.0337373
-0.103493
-0.128895
-0.110899
-0.0933378
-0.0794968
-0.0693947
-0.0620921
-0.0559331
-0.0526653
-0.0516516
-0.0518951
-0.0519605
-0.0506494
-0.0481215
-0.0446114
-0.0403233
-0.0357425
-0.0315076
-0.0281551
-0.0272364
-0.0251324
-0.0255048
-0.0276357
-0.0311215
-0.0354091
-0.0398133
-0.0439194
-0.047805
-0.0518761
-0.0563832
-0.0596805
-0.0676907
-0.0659922
-0.0591045
-0.0485715
-0.0386277
-0.0345439
-0.039267
-0.049579
-0.0527623
-0.155061
-0.171172
-0.134958
-0.106217
-0.0878354
-0.0757888
-0.0670645
-0.0600215
-0.0575267
-0.0573574
-0.0598714
-0.0619001
-0.0601344
-0.0564701
-0.0518889
-0.0464722
-0.0407413
-0.0355364
-0.0316828
-0.0305148
-0.027163
-0.0274939
-0.0298515
-0.0342717
-0.0400469
-0.0461518
-0.0518668
-0.0572671
-0.0631806
-0.0703925
-0.0769116
-0.0862075
-0.0856616
-0.0767929
-0.0643068
-0.0546083
-0.0548172
-0.0679423
-0.0866929
-0.0891803
-0.216528
-0.210278
-0.132838
-0.0906297
-0.0758899
-0.0663624
-0.0585696
-0.0537557
-0.0538587
-0.0558063
-0.0638848
-0.0728891
-0.0704398
-0.0652225
-0.0600423
-0.0543356
-0.0479151
-0.0415242
-0.037692
-0.0317808
-0.0284337
-0.0285704
-0.0317151
-0.0375846
-0.0449599
-0.0523504
-0.0584639
-0.0631399
-0.0682185
-0.076323
-0.0919139
-0.0948556