# vtk DataFile Version 4.0
Nusif Fluid VTK output
ASCII
DATASET STRUCTURED_POINTS
DIMENSIONS 40 30 1
ORIGIN 0 0 0 
SPACING 0.2 0.2 1
POINT_DATA 1200 

VECTORS velocity double
5.88093e-05 0.000838117  0
0.000167066 0.000776798  0
0.000379592 0.000660719  0
0.000865516 0.000498506  0
0.00170452 0.000302757  0
0.00294782 8.93761e-05  0
0.00461261 -0.000123526  0
0.00667934 -0.000317264  0
0.0090924 -0.000474428  0
0.0117647 -0.000580883  0
0.014586 -0.000627753  0
0.0174352 -0.000612649  0
0.020193 -0.000540044  0
0.0227556 -0.000420794  0
0.0250449 -0.000269779  0
0.0270134 -0.000102383  0
0.0286409 6.90942e-05  0
0.0299269 0.000237626  0
0.030881 0.000399816  0
0.0315212 0.000551025  0
0.0318787 0.000682356  0
0.0320053 0.000782232  0
0.031977 0.00083804  0
0.0318926 0.000839443  0
0.0318653 0.000782333  0
0.0320074 0.000671699  0
0.0324122 0.000521455  0
0.0331394 0.000351311  0
0.0342078 0.000182178  0
0.0355978 3.1742e-05  0
0.0372605 -8.8558e-05  0
0.0391309 -0.000174067  0
0.0411375 -0.000223096  0
0.0431927 -0.000221092  0
0.0451196 -9.35912e-05  0
0.0464327 0.000393908  0
0.045916 0.00173715  0
0.0412818 0.00451201  0
0.0298579 0.00852722  0
0.0110692 0.011877  0
-2.55758e-06 0.00250382  0
-1.02981e-05 0.00231739  0
0.000101579 0.00196242  0
0.000508034 0.0014651  0
0.00129601 0.000863852  0
0.00252219 0.000207513  0
0.00420662 -0.000448064  0
0.00632911 -0.0010449  0
0.00882943 -0.00152873  0
0.0116119 -0.00185532  0
0.0145549 -0.00199672  0
0.0175234 -0.00194524  0
0.020385 -0.00171525  0
0.023026 -0.00134144  0
0.0253635 -0.000871879  0
0.0273526 -0.000356482  0
0.0289813 0.000165913  0
0.0302575 0.000675849  0
0.0311937 0.00116748  0
0.0318027 0.00162983  0
0.032109 0.00203554  0
0.03216 0.00234789  0
0.0320329 0.00252544  0
0.0318354 0.00253327  0
0.0316961 0.00235636  0
0.0317451 0.00200994  0
0.0320905 0.00153886  0
0.0327988 0.00100684  0
0.0338869 0.000481087  0
0.0353254 1.77984e-05  0
0.0370511 -0.000347098  0
0.0389826 -0.000599272  0
0.0410322 -0.000733868  0
0.0430962 -0.000707434  0
0.0449829 -0.000297315  0
0.0461969 0.00119537  0
0.0455337 0.00524146  0
0.04077 0.0135321  0
0.0293672 0.0254607  0
0.0108583 0.035368  0
-0.00012788 0.00428002  0
-0.000374571 0.00395724  0
-0.00047244 0.00333917  0
-0.000232432 0.00247028  0
0.000447767 0.00141669  0
0.00163678 0.000263485  0
0.00336109 -0.000890933  0
0.00559964 -0.00194334  0
0.00828292 -0.00279622  0
0.0112977 -0.00336942  0
0.0144974 -0.0036114  0
0.017718 -0.00350742  0
0.0207979 -0.00308397  0
0.0236 -0.00240644  0
0.0260314 -0.00156761  0
0.0280539 -0.000664876  0
0.0296773 0.000229112  0
0.0309319 0.00108836  0
0.0318359 0.00192136  0
0.0323888 0.00272086  0
0.032596 0.00343827  0
0.0324931 0.00400499  0
0.0321588 0.00433863  0
0.0317196 0.00436677  0
0.0313387 0.00405404  0
0.0311876 0.00342652  0
0.0314074 0.00257045  0
0.03208 0.0016089  0
0.0332169 0.000669766  0
0.0347667 -0.000142412  0
0.0366347 -0.000762831  0
0.0387056 -0.00116745  0
0.04086 -0.00135032  0
0.0429664 -0.00124155  0
0.0448116 -0.000474733  0
0.0458928 0.00209815  0
0.0450359 0.00887958  0
0.0401185 0.0225959  0
0.0287649 0.0421743  0
0.0106061 0.0583427  0
-0.000325868 0.00637039  0
-0.000951906 0.00588923  0
-0.00138565 0.00496377  0
-0.00141441 0.00365733  0
-0.000910586 0.00206642  0
0.000214836 0.000318015  0
0.00200013 -0.00143845  0
0.00442417 -0.00304386  0
0.00740371 -0.00434599  0
0.0107976 -0.00521774  0
0.0144185 -0.005575  0
0.018053 -0.00539186  0
0.0214887 -0.00470964  0
0.0245466 -0.00363668  0
0.0271139 -0.00233311  0
0.0291661 -0.000972114  0
0.0307595 0.000321086  0
0.0319756 0.00152685  0
0.0328438 0.00271172  0
0.0333287 0.00389413  0
0.0333931 0.00499523  0
0.0330481 0.00589858  0
0.0323738 0.00645723  0
0.0315293 0.0065366  0
0.0307401 0.00606012  0
0.0302528 0.00506601  0
0.0302689 0.00370345  0
0.0308962 0.00218566  0
0.0321339 0.000729256  0
0.0338896 -0.00049541  0
0.0360135 -0.00138879  0
0.0383351 -0.00192017  0
0.0406878 -0.00209002  0
0.0429051 -0.0018104  0
0.0447517 -0.000582061  0
0.0457235 0.00316831  0
0.0446852 0.0127208  0
0.0396168 0.0317565  0
0.0282881 0.0587121  0
0.0104055 0.0808622  0
-0.00060976 0.00893245  0
-0.00178231 0.00826217  0
-0.00270494 0.00696619  0
-0.00313004 0.00512581  0
-0.00289162 0.00287075  0
-0.00186808 0.000377768  0
-7.7258e-07 -0.00213977  0
0.00269207 -0.00445041  0
0.00610923 -0.00632911  0
0.0100696 -0.00758378  0
0.0143256 -0.00808271  0
0.018588 -0.00777958  0
0.0225623 -0.00673218  0
0.0259982 -0.00510954  0
0.0287459 -0.00317803  0
0.0308044 -0.00124179  0
0.0323187 0.000478565  0
0.0334746 0.00199259  0
0.0343178 0.0035297  0
0.0347272 0.00517736  0
0.034581 0.00678968  0
0.0338605 0.00816653  0
0.032659 0.00906288  0
0.0311873 0.00924624  0
0.0297695 0.00855779  0
0.0287749 0.00705195  0
0.0285012 0.00497826  0
0.0290949 0.00269425  0
0.0305304 0.000553213  0
0.0326435 -0.0011812  0
0.0351937 -0.00236928  0
0.0379259 -0.00298459  0
0.0406096 -0.00305234  0
0.0430396 -0.00248518  0
0.044965 -0.00066863  0
0.0458872 0.00437184  0
0.0447053 0.0167486  0
0.0394792 0.0410343  0
0.0280915 0.0751619  0
0.0103122 0.103085  0
-0.000996983 0.0121545  0
-0.00291949 0.0112573  0
-0.00452276 0.00950968  0
-0.00551026 0.00700582  0
-0.00565891 0.00391001  0
-0.00479589 0.000459067  0
-0.00282822 -0.00305088  0
0.000234826 -0.00629198  0
0.00427083 -0.00893946  0
0.00904557 -0.0107092  0
0.0142278 -0.0113981  0
0.0194188 -0.0109221  0
0.0242017 -0.00935325  0
0.0282146 -0.00694497  0
0.031244 -0.00412869  0
0.0333132 -0.00142901  0
0.0346989 0.000754877  0
0.0357689 0.00247916  0
0.0365862 0.0043713  0
0.0368246 0.0066771  0
0.0362226 0.0090278  0
0.0348013 0.0110608  0
0.0327411 0.012422  0
0.0303339 0.0127591  0
0.028035 0.0117561  0
0.0263741 0.00950508  0
0.025768 0.00640246  0
0.0264126 0.00303071  0
0.028237 -4.28395e-05  0
0.0309589 -0.00241845  0
0.0341937 -0.0039144  0
0.0375613 -0.00453561  0
0.0407502 -0.00436943  0
0.0435198 -0.00336273  0
0.0456184 -0.0008096  0
0.0465645 0.00565032  0
0.0452807 0.0209417  0
0.0398674 0.0504867  0
0.0282821 0.0916885  0
0.0103627 0.125263  0
-0.0015079 0.0162627  0
-0.00442874 0.0150993  0
-0.00695763 0.0128061  0
-0.00873083 0.00947466  0
-0.00943931 0.00530112  0
-0.00882967 0.000596307  0
-0.00675243 -0.00423388  0
-0.00319686 -0.00873034  0
0.00169213 -0.0124308  0
0.00761414 -0.0149213  0
0.0141297 -0.0158924  0
0.0206976 -0.0151973  0
0.026743 -0.0129189  0
0.0317634 -0.0094267  0
0.0354561 -0.00538464  0
0.0378077 -0.00161076  0
0.0391304 0.00121051  0
0.0400386 0.00302724  0
0.0406682 0.00535821  0
0.040205 0.00889731  0
0.0381859 0.0124116  0
0.0350535 0.0152147  0
0.0313879 0.0169791  0
0.0276194 0.0173646  0
0.0243071 0.0157502  0
0.0220727 0.0123964  0
0.0213517 0.00782998  0
0.0223687 0.00293502  0
0.0249864 -0.00139458  0
0.0287502 -0.00455611  0
0.0330655 -0.00632958  0
0.0373803 -0.00680446  0
0.0412871 -0.0061971  0
0.0445256 -0.00454349  0
0.0468758 -0.00107748  0
0.0479001 0.00694816  0
0.0465363 0.0252919  0
0.0408768 0.0602099  0
0.0289147 0.108513  0
0.0105734 0.147699  0
-0.00216221 0.0215236  0
-0.00638002 0.020068  0
-0.0101519 0.0171377  0
-0.0130202 0.0127826  0
-0.0145423 0.00722027  0
-0.0143364 0.000856412  0
-0.0121616 -0.00575293  0
-0.00797008 -0.0119672  0
-0.00192771 -0.0171361  0
0.00558941 -0.020668  0
0.0140202 -0.0221068  0
0.0226759 -0.0212233  0
0.0308512 -0.0181324  0
0.037973 -0.0133762  0
0.0436699 -0.00784718  0
0.0475536 -0.00240751  0
0.049171 0.00204225  0
0.049414 0.0040189  0
0.0491359 0.00698981  0
0.0462358 0.0136042  0
0.039784 0.0191514  0
0.0319447 0.0224237  0
0.0247889 0.0235699  0
0.019034 0.0232774  0
0.0151073 0.0200584  0
0.013335 0.0150788  0
0.0135938 0.00859561  0
0.0159955 0.00173832  0
0.0203222 -0.00415315  0
0.025923 -0.00817132  0
0.031946 -0.0100609  0
0.0376344 -0.0100833  0
0.0424932 -0.00869006  0
0.0462844 -0.0060859  0
0.0488799 -0.00148601  0
0.0499445 0.00826267  0
0.04845 0.0298308  0
0.0424454 0.0703301  0
0.0299237 0.125872  0
0.0109153 0.170685  0
-0.00297167 0.0282352  0
-0.00883528 0.0265123  0
-0.0142706 0.0228934  0
-0.01868 0.0172963  0
-0.0214015 0.0099403  0
-0.0218453 0.00136293  0
-0.0196277 -0.00766492  0
-0.0146414 -0.0162479  0
-0.00706987 -0.0234861  0
0.00264159 -0.0285654  0
0.0138415 -0.0308611  0
0.0257905 -0.0300969  0
0.0378817 -0.0265506  0
0.0498213 -0.021047  0
0.061283 -0.0143645  0
0.0702917 -0.00581386  0
0.0724365 0.00465395  0
0.0695327 0.00703489  0
0.0668522 0.00989959  0
0.0578638 0.0255507  0
0.0396002 0.0348889  0
0.0194225 0.0376731  0
0.00424587 0.0336244  0
-0.00444562 0.0306427  0
-0.00748133 0.0226314  0
-0.00555375 0.0153283  0
-0.00117793 0.00669134  0
0.0052733 -0.00222851  0
0.0133998 -0.00965591  0
0.0223845 -0.0142687  0
0.0311541 -0.0157695  0
0.0387967 -0.0147181  0
0.0448131 -0.0119421  0
0.0490856 -0.0079085  0
0.0516836 -0.00186767  0
0.0524927 0.0097601  0
0.0506211 0.0346889  0
0.0441183 0.0809687  0
0.0309597 0.143903  0
0.0112582 0.194353  0
-0.00393451 0.0367055  0
-0.01185 0.0348785  0
-0.0195414 0.0306401  0
-0.0261758 0.0235786  0
-0.0307068 0.0138942  0
-0.0322086 0.0023371  0
-0.0300887 -0.00999574  0
-0.0241624 -0.0218504  0
-0.0146203 -0.0320198  0
-0.00191817 -0.0394699  0
0.0133612 -0.0434627  0
0.0307405 -0.0438528  0
0.0502922 -0.0414695  0
0.0726958 -0.0375057  0
0.0977043 -0.0314129  0
0.119148 -0.0162568  0
0.119217 0.0158423  0
0.104672 0.0162545  0
0.0994638 0.0115276  0
0.0800213 0.0553138  0
0.0370091 0.0693626  0
-0.0117475 0.0750959  0
-0.0449828 0.0475777  0
-0.0566453 0.0400102  0
-0.0558408 0.0184645  0
-0.0439446 0.00864306  0
-0.0295898 -0.00238008  0
-0.0135519 -0.01267  0
0.0027254 -0.02064  0
0.0181044 -0.0246684  0
0.0314007 -0.0244543  0
0.0417688 -0.0210615  0
0.0489767 -0.0158398  0
0.0532514 -0.0095743  0
0.0550408 -0.00160546  0
0.0546745 0.0120391  0
0.0517204 0.0402195  0
0.0445385 0.0921065  0
0.0310872 0.162358  0
0.0112833 0.218386  0
-0.00507604 0.0472664  0
-0.0156177 0.045815  0
-0.0265343 0.0412912  0
-0.0365387 0.0325452  0
-0.043893 0.0197906  0
-0.0471538 0.00417988  0
-0.0454622 -0.0126749  0
-0.0385575 -0.0290289  0
-0.0266102 -0.043359  0
-0.00987585 -0.0545976  0
0.0115628 -0.0620856  0
0.0380001 -0.0660817  0
0.0708034 -0.0686335  0
0.111612 -0.0705948  0
0.15905 -0.0678142  0
0.203992 -0.0432888  0
0.192167 0.0575811  0
0.144213 0.0399653  0
0.139137 0.00105204  0
0.107606 0.119716  0
0.0398983 0.118634  0
-0.0602559 0.17769  0
-0.136558 0.0574765  0
-0.143814 0.0519896  0
-0.13392 -0.00124961  0
-0.106481 -0.00801213  0
-0.0781714 -0.0254215  0
-0.0448691 -0.0359981  0
-0.013388 -0.0420973  0
0.0135851 -0.0425882  0
0.034328 -0.0375973  0
0.048324 -0.0293051  0
0.0561962 -0.0196981  0
0.0590018 -0.00981781  0
0.0579124 0.000916711  0
0.0541212 0.0166528  0
0.0484874 0.0471719  0
0.0406777 0.103124  0
0.0285136 0.179934  0
0.0104736 0.241632  0
-0.00670516 0.060584  0
-0.0212123 0.0605691  0
-0.0373121 0.0565266  0
-0.052804 0.0457789  0
-0.0647477 0.0288268  0
-0.070996 0.00762366  0
-0.0704526 -0.0153841  0
-0.0628321 -0.0378771  0
-0.0482005 -0.0581234  0
-0.0260835 -0.0757202  0
0.00472512 -0.0902481  0
0.0451806 -0.101853  0
0.0970434 -0.114572  0
0.159074 -0.124543  0
0.220674 -0.119956  0
0.297725 -0.110195  0
0.26535 0.170896  0
0.150313 0.0911134  0
0.0977065 0.00906033  0
0.0608047 0.181615  0
0.0259988 0.160723  0
-0.0658179 0.329047  0
-0.178312 0.0963913  0
-0.217598 0.0618346  0
-0.194253 -0.0413738  0
-0.16729 -0.0193308  0
-0.139043 -0.0676972  0
-0.0850542 -0.0780481  0
-0.0330543 -0.0805604  0
0.0117535 -0.0729357  0
0.0438609 -0.0571283  0
0.0620963 -0.0390325  0
0.0686832 -0.0214564  0
0.0663995 -0.00560784  0
0.0579249 0.00924427  0
0.0461544 0.0268601  0
0.0350369 0.0566887  0
0.0278709 0.111555  0
0.0214197 0.19309  0
0.00865805 0.262249  0
-0.0101858 0.0789972  0
-0.032665 0.0821478  0
-0.0583837 0.0797333  0
-0.0834291 0.0660764  0
-0.10299 0.0430003  0
-0.114215 0.0138892  0
-0.115968 -0.0174756  0
-0.107992 -0.0484191  0
-0.0902871 -0.0769571  0
-0.0609071 -0.105424  0
-0.0165806 -0.132722  0
0.0408143 -0.154274  0
0.1106 -0.180847  0
0.181417 -0.188168  0
0.203611 -0.137917  0
0.193587 -0.157789  0
0.252194 0.0469058  0
0.262446 0.0627227  0
0.0603082 0.0136675  0
-0.0139785 0.100121  0
-0.0762228 0.0884506  0
-0.0439912 0.202343  0
0.0236263 0.0991258  0
-0.0827288 0.0650038  0
-0.10176 -0.0473781  0
-0.165341 0.0247687  0
-0.170357 -0.132807  0
-0.103617 -0.130705  0
-0.0422974 -0.13826  0
0.0215176 -0.120892  0
0.0679763 -0.0847701  0
0.0899587 -0.0486397  0
0.0910193 -0.0165277  0
0.0764854 0.00925023  0
0.0524734 0.0298414  0
0.0255971 0.0478776  0
0.00585038 0.0695026  0
0.00385488 0.110869  0
0.0121792 0.194869  0
0.00799348 0.280384  0
-0.0187651 0.109456  0
-0.0589901 0.117381  0
-0.10332 0.11751  0
-0.144934 0.0979212  0
-0.176366 0.06511  0
-0.194598 0.0241976  0
-0.198395 -0.0192752  0
-0.18739 -0.0626421  0
-0.163925 -0.100948  0
-0.125162 -0.14662  0
-0.0649405 -0.19312  0
-0.000497243 -0.212764  0
0.0650621 -0.254754  0
0.101845 -0.219652  0
0.162664 -0.173772  0
0.208535 -0.0788945  0
0.0967935 -0.0788945  0
0 0  0
0 0  0
0 0  0
0 0  0
0 0  0
-0.0413644 0.0325019  0
-0.0360533 0.0325019  0
-0.103917 -0.0141736  0
-0.127815 -0.0511412  0
-0.0371726 -0.171601  0
-0.0421703 -0.152173  0
-0.0139283 -0.204133  0
0.0573393 -0.187138  0
0.115501 -0.12018  0
0.139666 -0.0564114  0
0.131288 0.00152603  0
0.0953709 0.0446129  0
0.0449178 0.071908  0
-0.0038319 0.0844  0
-0.0331173 0.0849739  0
-0.0231644 0.0904013  0
0.012834 0.173975  0
0.0157003 0.305558  0
-0.0348218 0.164536  0
-0.106312 0.176986  0
-0.181595 0.180475  0
-0.248298 0.146231  0
-0.293791 0.0966823  0
-0.316326 0.0363493  0
-0.313859 -0.0271431  0
-0.286779 -0.0899059  0
-0.252913 -0.128063  0
-0.210974 -0.197255  0
-0.143451 -0.26728  0
-0.0982822 -0.246003  0
-0.0930825 -0.2908  0
0.00438121 -0.255226  0
0.0509225 -0.109826  0
0 0  0
0 0  0
0 0  0
0 0  0
0 0  0
0 0  0
0 0  0
0 0  0
0 0  0
0 0  0
-0.0185863 -0.0858005  0
-0.0493856 -0.0858005  0
0.0190598 -0.191903  0
0.0997182 -0.236632  0
0.131986 -0.255953  0
0.179656 -0.154234  0
0.201972 -0.0658757  0
0.191226 0.033075  0
0.134552 0.108617  0
0.0536802 0.142189  0
-0.014594 0.134101  0
-0.0554036 0.108324  0
-0.0419652 0.0466148  0
0.0275624 0.11519  0
0.0346289 0.357365  0
-0.0493538 0.249454  0
-0.149449 0.265133  0
-0.262543 0.282921  0
-0.358335 0.209236  0
-0.407177 0.130967  0
-0.419442 0.0398183  0
-0.394469 -0.0551014  0
-0.338469 -0.142815  0
-0.303214 -0.142801  0
-0.288212 -0.237983  0
-0.274302 -0.306512  0
-0.163894 -0.278857  0
-0.0732841 -0.1454  0
-0.0465413 -0.1454  0
0 0  0
0 0  0
0 0  0
0 0  0
0 0  0
0 0  0
0 0  0
0 0  0
0 0  0
0 0  0
0 0  0
0 0  0
0 0  0
0.0498591 -0.118316  0
0.160797 -0.262056  0
0.221875 -0.287481  0
0.21406 -0.161081  0
0.222541 -0.0876069  0
0.226456 0.0645964  0
0.167897 0.195287  0
0.0838193 0.223426  0
0.03843 0.169482  0
-0.0203035 0.174699  0
-0.0821071 0.03008  0
-0.0774859 0.0590522  0
-0.0311527 0.361579  0
-0.0578875 0.149404  0
-0.244708 0.330944  0
-0.373641 0.346012  0
-0.375906 0.24568  0
-0.384675 0.153611  0
-0.39166 0.0379007  0
-0.392142 -0.0762003  0
-0.364767 -0.126589  0
-0.265756 -0.0719458  0
-0.206902 -0.125947  0
-0.246992 -0.153256  0
-0.137151 -0.153256  0
0 0  0
0 0  0
0 0  0
0 0  0
0 0  0
0 0  0
0 0  0
0 0  0
0 0  0
0 0  0
0 0  0
0 0  0
0 0  0
0 0  0
0 0  0
0 0  0
0.110937 -0.14374  0
0.154767 -0.14374  0
0.145686 -0.128214  0
0.203713 -0.103163  0
0.19607 0.0853599  0
0.15403 0.276602  0
0.117975 0.264461  0
0.116319 0.177709  0
0.115038 0.201826  0
0.00892881 0.0203197  0
-0.22238 0.0219358  0
-0.17443 0.165213  0
0 0  0
-0.186821 0.173006  0
-0.324607 0.173006  0
-0.282957 0.123972  0
-0.279894 0.0800575  0
-0.273503 0.0191913  0
-0.334851 -0.0381002  0
-0.196071 -0.0381002  0
0 0  0
0 0  0
0 0  0
0 0  0
0 0  0
0 0  0
0 0  0
0 0  0
0 0  0
0 0  0
0 0  0
0 0  0
0 0  0
0 0  0
0 0  0
0 0  0
0 0  0
0 0  0
0 0  0
0 0  0
0 0  0
0 0  0
0.101857 -0.0515816  0
0.10563 -0.0515816  0
-0.0110112 0.0465013  0
0.0517829 0.221797  0
0.200267 0.199725  0
0.191859 0.155151  0
0.0581595 0.0888545  0
0 0  0
0 0  0
0 0  0
0 0  0
0 0  0
0 0  0
0 0  0
0 0  0
0 0  0
0 0  0
0 0  0
0 0  0
0 0  0
0 0  0
0 0  0
0 0  0
0 0  0
0 0  0
0 0  0
0 0  0
0 0  0
0 0  0
0 0  0
0 0  0
0 0  0
0 0  0
0 0  0
0 0  0
0 0  0
0 0  0
0 0  0
0 0  0
0 0  0
0 0  0
0 0  0
0 0  0
0.0665677 0.066297  0
0.200267 0.066297  0
0.133699 0.066297  0
0 0  0
0 0  0
0 0  0
0 0  0
0 0  0
0 0  0
0 0  0
0 0  0
0 0  0
0 0  0
0 0  0
0 0  0
0 0  0
0 0  0
0 0  0
0 0  0
0 0  0
0 0  0
0 0  0
0 0  0
0 0  0
0 0  0
0 0  0
0 0  0
0 0  0
0 0  0
0 0  0
0 0  0
0 0  0
0 0  0
0 0  0
0 0  0
0 0  0
0 0  0
0 0  0
0 0  0
0 0  0
0 0  0
0 0  0
0 0  0
0 0  0
0 0  0
0 0  0
0 0  0
0 0  0
0 0  0
0 0  0
0 0  0
0 0  0
0 0  0
0 0  0
0 0  0
0 0  0
0 0  0
0 0  0
0 0  0
0 0  0
0 0  0
0 0  0
0 0  0
0 0  0
0 0  0
0 0  0
0 0  0
0 0  0
0 0  0
0 0  0
0 0  0
0 0  0
0 0  0
0 0  0
0 0  0
0 0  0
0 0  0
0 0  0
0 0  0
0 0  0
0 0  0
0 0  0
0 0  0
0 0  0
0 0  0
0 0  0
0 0  0
0 0  0
0 0  0
0 0  0
0 0  0
0 0  0
0 0  0
0 0  0
0 0  0
0 0  0
0 0  0
0 0  0
0 0  0
0 0  0
0 0  0
0 0  0
0 0  0
0 0  0
0 0  0
0 0  0
0 0  0
0 0  0
0 0  0
0 0  0
0 0  0
0 0  0
0 0  0
0 0  0
0 0  0
0 0  0
0 0  0
0 0  0
0 0  0
0 0  0
0 0  0
0 0  0
0 0  0
0 0  0
0 0  0
0 0  0
0 0  0
0 0  0
0 0  0
0 0  0
0 0  0
0 0  0
0 0  0
0 0  0
0 0  0
0 0  0
0 0  0
0 0  0
0 0  0
0 0  0
0 0  0
0 0  0
0 0  0
0 0  0
0 0  0
0 0  0
0 0  0
0 0  0
0 0  0
0 0  0
0 0  0
0 0  0
0 0  0
0 0  0
0 0  0
0 0  0
0 0  0
0 0  0
0 0  0
0 0  0
0 0  0
0 0  0
0 0  0
0 0  0
0 0  0
0 0  0
0 0  0
0 0  0
0 0  0
0 0  0
0 0  0
0 0  0
0 0  0
0 0  0
0 0  0
0 0  0
0 0  0
0 0  0
0 0  0
0 0  0
0 0  0
0 0  0
0 0  0
0 0  0
0 0  0
0 0  0
0 0  0
0 0  0
0 0  0
0 0  0
0 0  0
0 0  0
0 0  0
0 0  0
0 0  0
0 0  0
0 0  0
0 0  0
0 0  0
0 0  0
0 0  0
0 0  0
0 0  0
0 0  0
0 0  0
0 0  0
0 0  0
0 0  0
0 0  0
0 0  0
0 0  0
0 0  0
0 0  0
0 0  0
0 0  0
0 0  0
0 0  0
0 0  0
0 0  0
0 0  0
0 0  0
0 0  0
0 0  0
0 0  0
0 0  0
0 0  0
0 0  0
0 0  0
0 0  0
0 0  0
0 0  0
0 0  0
0 0  0
0 0  0
0 0  0
0 0  0
0 0  0
0 0  0
0 0  0
0 0  0
0 0  0
0 0  0
0 0  0
0 0  0
0 0  0
0 0  0
0 0  0
0 0  0
0 0  0
0 0  0
0 0  0
0 0  0
0 0  0
0 0  0
0 0  0
0 0  0
0 0  0
0 0  0
0 0  0
0 0  0
0 0  0
0 0  0
0 0  0
0 0  0
0 0  0
0 0  0
0 0  0
0 0  0
0 0  0
0 0  0
0 0  0
0 0  0
0 0  0
0 0  0
0 0  0
0 0  0
0 0  0
0 0  0
0 0  0
0 0  0
0 0  0
0 0  0
0 0  0
0 0  0
0 0  0
0 0  0
0 0  0
0 0  0
0 0  0
0 0  0
0 0  0
0 0  0
0 0  0
0 0  0
0 0  0
0 0  0
0 0  0
0 0  0
0 0  0
0 0  0
0 0  0
0 0  0
0 0  0
0 0  0
0 0  0
0 0  0
0 0  0
0 0  0
0 0  0
0 0  0
0 0  0
0 0  0
0 0  0
0 0  0
0 0  0
0 0  0
0 0  0
0 0  0
0 0  0
0 0  0
0 0  0
0 0  0
0 0  0
0 0  0
0 0  0
0 0  0
0 0  0
0 0  0
0 0  0
0 0  0
0 0  0
0 0  0
0 0  0
0 0  0
0 0  0
0 0  0
0 0  0
0 0  0
0 0  0
0 0  0
0 0  0
0 0  0
0 0  0
0 0  0
0 0  0
0 0  0
0 0  0
0 0  0
0 0  0
0 0  0
0 0  0
0 0  0
0 0  0
0 0  0
0 0  0
0 0  0
0 0  0
0 0  0
0 0  0
0 0  0
0 0  0
0 0  0
0 0  0
0 0  0
0 0  0
0 0  0
0 0  0
0 0  0
0 0  0
0 0  0
0 0  0
0 0  0
0 0  0
0 0  0
0 0  0
0 0  0
0 0  0
0 0  0
0 0  0
0 0  0
0 0  0
0 0  0
0 0  0
0 0  0
0 0  0
0 0  0
0 0  0
0 0  0
0 0  0
0 0  0
0 0  0
0 0  0
0 0  0
0 0  0
0 0  0
0 0  0
0 0  0
0 0  0
0 0  0
0 0  0
0 0  0
0 0  0
0 0  0
0 0  0
0 0  0
0 0  0
0 0  0
0 0  0
0 0  0
0 0  0
0 0  0
0 0  0
0 0  0
0 0  0
0 0  0
0 0  0
0 0  0
0 0  0
0 0  0
0 0  0
0 0  0
0 0  0
0 0  0
0 0  0
0 0  0
0 0  0
0 0  0
0 0  0
0 0  0
0 0  0
0 0  0
0 0  0
0 0  0
0 0  0
0 0  0
0 0  0
0 0  0
0 0  0
0 0  0
0 0  0
0 0  0
0 0  0
0 0  0
0 0  0
0 0  0
0 0  0
0 0  0

SCALARS pressure double 1
LOOKUP_TABLE default
2.84228
2.8395
2.83426
2.8266
2.8166
2.80436
2.79007
2.77393
2.75622
2.73728
2.71751
2.69739
2.67743
2.65821
2.64031
2.62431
2.61075
2.6001
2.59271
2.58882
2.58853
2.59179
2.59845
2.60821
2.62069
2.63543
2.65191
2.66961
2.68799
2.70652
2.72475
2.74224
2.75865
2.77366
2.78706
2.79868
2.8084
2.81611
2.82167
2.82473
2.6443
2.64151
2.63624
2.62851
2.6184
2.60602
2.59152
2.57512
2.55709
2.53775
2.51752
2.49688
2.47637
2.45657
2.4381
2.42158
2.40756
2.39655
2.38893
2.38494
2.38469
2.38813
2.39507
2.40521
2.41815
2.4334
2.45042
2.46865
2.48753
2.50654
2.52518
2.54303
2.55972
2.57497
2.58854
2.60028
2.61007
2.61784
2.62344
2.62652
2.44866
2.44584
2.44049
2.43263
2.4223
2.40962
2.39471
2.37778
2.35908
2.33894
2.31778
2.29609
2.27443
2.25344
2.2338
2.21617
2.20121
2.18947
2.18137
2.17718
2.17701
2.1808
2.18833
2.19926
2.21315
2.22944
2.24755
2.26687
2.28679
2.30676
2.32625
2.34481
2.36209
2.37778
2.39169
2.40366
2.4136
2.42146
2.42709
2.43018
2.25539
2.25253
2.24707
2.23901
2.22838
2.21526
2.19975
2.18203
2.16233
2.14098
2.11839
2.09508
2.07165
2.0488
2.0273
2.00794
1.99148
1.97857
1.96972
1.96524
1.96521
1.96956
1.97802
1.9902
2.00557
2.02349
2.0433
2.06431
2.08585
2.10729
2.12807
2.14772
2.16586
2.18222
2.1966
2.20889
2.21903
2.22699
2.23267
2.23576
2.06454
2.06164
2.05606
2.04777
2.03677
2.0231
2.00682
1.98806
1.96705
1.94408
1.91955
1.89401
1.86811
1.84264
1.8185
1.79665
1.77803
1.76346
1.75356
1.74868
1.74888
1.75404
1.76384
1.77779
1.79526
1.8155
1.8377
1.86107
1.88484
1.9083
1.93084
1.95196
1.97125
1.98846
2.00343
2.0161
2.02645
2.03451
2.04021
2.0433
1.87618
1.87325
1.86756
1.85905
1.84766
1.83336
1.81617
1.79617
1.77354
1.74854
1.72155
1.69312
1.66396
1.63498
1.60725
1.58197
1.56036
1.54352
1.53223
1.52687
1.52744
1.53373
1.54534
1.56171
1.58203
1.60537
1.63076
1.65725
1.68396
1.71007
1.73488
1.75784
1.77856
1.79678
1.81241
1.82544
1.83596
1.84407
1.84974
1.85279
1.69036
1.68743
1.6817
1.67303
1.66127
1.64633
1.62814
1.60673
1.58221
1.55478
1.52479
1.49276
1.45944
1.42587
1.39337
1.36346
1.33776
1.31786
1.30482
1.29896
1.30012
1.30793
1.32191
1.34149
1.3656
1.39301
1.42254
1.45305
1.48351
1.51295
1.54058
1.5658
1.58819
1.60753
1.62381
1.63712
1.64767
1.65568
1.66124
1.6642
1.50707
1.50423
1.49858
1.48988
1.47786
1.46232
1.44312
1.42019
1.39357
1.36337
1.32986
1.29346
1.25495
1.21549
1.1767
1.14054
1.10918
1.08517
1.07004
1.06386
1.06595
1.0758
1.0927
1.11657
1.14569
1.17833
1.21312
1.24872
1.28387
1.31744
1.34852
1.37641
1.40068
1.42119
1.43799
1.45135
1.46167
1.46934
1.47459
1.47739
1.32623
1.32361
1.31828
1.30981
1.29774
1.28173
1.26156
1.23708
1.20824
1.17502
1.13753
1.096
1.05111
1.0041
0.957033
0.912476
0.872979
0.84342
0.826063
0.820137
0.823714
0.836343
0.856302
0.886148
0.921976
0.9612
1.00261
1.04456
1.08553
1.1242
1.15943
1.19043
1.21676
1.23835
1.25541
1.26841
1.27802
1.28492
1.2896
1.29212
1.14759
1.14545
1.14087
1.13306
1.12127
1.105
1.08396
1.05797
1.02693
0.990609
0.948813
0.901454
0.848832
0.792059
0.733904
0.678233
0.62606
0.58918
0.570131
0.565675
0.571349
0.588351
0.609301
0.649063
0.694244
0.741325
0.791055
0.840807
0.889039
0.934047
0.974293
1.00886
1.03737
1.05985
1.07669
1.08864
1.09676
1.10224
1.10596
1.10806
0.970627
0.969427
0.966325
0.95988
0.948872
0.932585
0.910773
0.88335
0.850325
0.811143
0.76499
0.711291
0.649474
0.579544
0.505317
0.43549
0.359869
0.316653
0.297985
0.295559
0.303621
0.32651
0.340833
0.404105
0.462531
0.517194
0.577625
0.637308
0.694915
0.747986
0.794366
0.833014
0.863736
0.886743
0.90264
0.912512
0.917993
0.921112
0.92336
0.92488
0.794335
0.794853
0.794582
0.790641
0.78105
0.764919
0.742258
0.713346
0.678825
0.637562
0.587436
0.527281
0.455263
0.367001
0.266111
0.180175
0.0405194
0.0166173
0.00869587
0.00952013
0.00707995
0.0391788
0.0164889
0.158231
0.228065
0.284065
0.360683
0.432653
0.50322
0.567167
0.621207
0.664467
0.697375
0.720411
0.734395
0.740711
0.741919
0.741481
0.741603
0.742281
0.616822
0.620339
0.62551
0.6258
0.618312
0.602185
0.577943
0.54684
0.511804
0.470167
0.417115
0.350632
0.270765
0.159785
0.00408153
-0.0148731
0
0
0
0
0
0
0
-0.0104403
0.00931565
0.0221708
0.139552
0.223633
0.313164
0.392827
0.45638
0.504798
0.539893
0.562521
0.573426
0.574081
0.568646
0.563294
0.560433
0.559758
0.434553
0.442698
0.459043
0.46575
0.460688
0.443776
0.415739
0.379467
0.346181
0.307599
0.253171
0.17939
0.1063
-0.00537005
0
0
0
0
0
0
0
0
0
0
0
0
-0.0387289
0.00224584
0.125267
0.226628
0.30031
0.354433
0.392033
0.414556
0.421166
0.412953
0.396855
0.384718
0.377984
0.375051
0.240789
0.253176
0.296307
0.310132
0.30661
0.2879
0.252151
0.200029
0.176243
0.147607
0.0951028
-0.00259477
-0.0252143
0
0
0
0
0
0
0
0
0
0
0
0
0
0
0
-0.0397101
0.0742561
0.151002
0.211879
0.252839
0.275879
0.2778
0.255892
0.22063
0.200326
0.187544
0.180077
0.0246529
0.0235096
0.147734
0.156885
0.152955
0.13513
0.0911075
-0.0192808
0.000518656
-0.00711649
-0.0249562
0
0
0
0
0
0
0
0
0
0
0
0
0
0
0
0
0
0
-0.0480257
0.00420736
0.0817475
0.121315
0.143481
0.144846
0.106702
0.0254647
0.00511042
-0.00759287
-0.015983
0
0
0.0593939
0
0.0034417
0.000465554
-0.0133331
0
0
0
0
0
0
0
0
0
0
0
0
0
0
0
0
0
0
0
0
0
0
0
0
-0.0106829
0.00396497
0.0174385
0.0401961
-0.00144934
0
0
0
0
0
0
0
0
0
0
0
0
0
0
0
0
0
0
0
0
0
0
0
0
0
0
0
0
0
0
0
0
0
0
0
0
0
0
0
0
0
0
0
0
0
0
0
0
0
0
0
0
0
0
0
0
0
0
0
0
0
0
0
0
0
0
0
0
0
0
0
0
0
0
0
0
0
0
0
0
0
0
0
0
0
0
0
0
0
0
0
0
0
0
0
0
0
0
0
0
0
0
0
0
0
0
0
0
0
0
0
0
0
0
0
0
0
0
0
0
0
0
0
0
0
0
0
0
0
0
0
0
0
0
0
0
0
0
0
0
0
0
0
0
0
0
0
0
0
0
0
0
0
0
0
0
0
0
0
0
0
0
0
0
0
0
0
0
0
0
0
0
0
0
0
0
0
0
0
0
0
0
0
0
0
0
0
0
0
0
0
0
0
0
0
0
0
0
0
0
0
0
0
0
0
0
0
0
0
0
0
0
0
0
0
0
0
0
0
0
0
0
0
0
0
0
0
0
0
0
0
0
0
0
0
0
0
0
0
0
0
0
0
0
0
0
0
0
0
0
0
0
0
0
0
0
0
0
0
0
0
0
0
0
0
0
0
0
0
0
0
0
0
0
0
0
0
0
0
0
0
0
0
0
0
0
0
0
0
0
0
0
0
0
0
0
0
0
0
0
0
0
0
0
0
0
0
0
0
0
0
0
0
0
0
0
0
0
0
0
0
0
0
0
0
0
0
0
0
0
0
0
0
0
0
0
0
0
0
0
0
0
0
0
0
0
0
0
0
0
0
0
0
0
0
0
0
0
0
0
0
0
0
0
0
0
0
0
0
0
0
0
0
0
0
0
0
0
0
0
0
0
0
0
0
0
0
0
0
0
0
0
0
0
0
0
0
0
0
0
0
0
0
0
0
0
0
0
0
0
0
0
0
0
0
0
0
0
0
0
0
0
0
0
0
0
0
0
0
0
0
0
0
0
0
0
0
0
0
0
0
0
0
0
0
0
0
0
0
0
0
0
0
0
0
0
0
0
0
0
0
0
0
0
0
0
0
0
0
0
0
0
0
0
0
0
0
0
0
0
0
0
0
0
0
0
0
0
0
0
0
0
0
0
0
0
0
0
0
0
0
0
0
0
0
0
0
0
0
0
0
0
0
0
0
0
0
0
0
0
0
0
0
0
SCALARS rhs double 1
LOOKUP_TABLE default
-4.86249
-4.9256
-4.92806
-4.93012
-4.93218
-4.93423
-4.93627
-4.93828
-4.94024
-4.94212
-4.94389
-4.94552
-4.94701
-4.94832
-4.94945
-4.95039
-4.95113
-4.95167
-4.952
-4.95213
-4.95205
-4.95178
-4.95134
-4.95074
-4.95001
-4.94918
-4.94829
-4.94737
-4.94644
-4.94554
-4.94467
-4.94386
-4.94312
-4.94246
-4.94186
-4.94138
-4.9414
-4.9437
-4.95111
-4.9643
0.073213
0.0137822
0.0129297
0.0124553
0.0119642
0.0114624
0.0109438
0.0104322
0.00993283
0.00946448
0.00904352
0.00868277
0.00838765
0.00815744
0.00798781
0.00787407
0.00781422
0.00780798
0.00784913
0.00793811
0.00807157
0.00824606
0.00845844
0.00870428
0.00897578
0.00926076
0.0095445
0.00981359
0.0100593
0.0102766
0.0104686
0.0106377
0.0107848
0.0109151
0.0110405
0.0111351
0.0107541
0.00789103
-0.000725615
-0.0152311
0.0689574
0.0121098
0.0113067
0.0108522
0.0104092
0.00992737
0.00941182
0.00891342
0.00842433
0.00796272
0.00754713
0.00719042
0.00689899
0.00667217
0.00650489
0.00639189
0.00633225
0.00632775
0.00636984
0.00646249
0.00660248
0.00678558
0.00700813
0.00726521
0.00754861
0.00784526
0.00813954
0.00841763
0.0086709
0.00889097
0.00909065
0.00926706
0.00942211
0.00956016
0.00969112
0.00978936
0.00941869
0.00664586
-0.00163103
-0.0154548
0.0645386
0.0106877
0.00992638
0.00949008
0.00903654
0.00860154
0.0080987
0.00756688
0.00707309
0.00660471
0.00618204
0.00581982
0.00552571
0.00529876
0.0051327
0.00502056
0.0049615
0.00495703
0.00499695
0.00509221
0.00524054
0.00543597
0.00567352
0.00594742
0.00624972
0.00656621
0.00687993
0.00717626
0.00744642
0.00767282
0.00789345
0.00808717
0.00825839
0.00840749
0.0085371
0.00860205
0.00815346
0.00536414
-0.0025986
-0.0157138
0.0596005
0.00913091
0.00841282
0.00799237
0.00754832
0.00706511
0.00662266
0.00611976
0.0055495
0.00506801
0.00463344
0.00426397
0.00396857
0.00374654
0.00359031
0.00349097
0.00344658
0.00344739
0.0034787
0.00357155
0.00372999
0.00394168
0.00419521
0.00448257
0.00480198
0.00514064
0.00548084
0.00580547
0.00608938
0.00634603
0.00659445
0.00681621
0.00701013
0.00716789
0.00727678
0.00724156
0.00656984
0.00357886
-0.0041726
-0.0166257
0.0541609
0.00741658
0.00674031
0.00632947
0.00588737
0.00538708
0.0048085
0.00451201
0.00385812
0.00328874
0.00283266
0.00244725
0.00214213
0.00191646
0.00176942
0.00170706
0.00173289
0.00176802
0.00176521
0.00183363
0.00202005
0.0022779
0.00255538
0.00282895
0.00313444
0.00348017
0.00385678
0.00423553
0.00451953
0.00485674
0.00516525
0.00543744
0.00566682
0.00583147
0.00589312
0.00567761
0.00461056
0.00119644
-0.00648101
-0.0183507
0.0482124
0.00549525
0.00485121
0.00443471
0.00397777
0.00343325
0.0027639
0.00222915
0.002123
0.00112369
0.000616662
0.000170714
-0.000221602
-0.000566867
-0.000806408
-0.000787972
-0.000431392
-0.00020186
-0.000377922
-0.000512311
-0.000202102
0.000283935
0.000703348
0.000879865
0.00103317
0.00130749
0.00173314
0.00224677
0.00251816
0.0030781
0.00352454
0.00389994
0.00419567
0.00437497
0.00436488
0.00390133
0.00229726
-0.00172548
-0.00948093
-0.0209176
0.0417126
0.0032764
0.00263277
0.00217191
0.00166104
0.00102075
0.000164059
-0.000476626
-0.000669001
-0.00133634
-0.00239004
-0.00309506
-0.00397144
-0.00509508
-0.00621162
-0.00629286
-0.00440016
-0.00284401
-0.00395968
-0.00602307
-0.00526321
-0.0039355
-0.00231474
-0.00219452
-0.00257188
-0.00233802
-0.00179453
-0.00132433
-0.000405241
0.000644661
0.001461
0.00207829
0.00252206
0.00275925
0.00268842
0.00198902
-9.25755e-05
-0.00466506
-0.0126441
-0.0240316
0.0345811
0.000605453
-0.000134535
-0.000741989
-0.00139992
-0.00223676
-0.00349058
-0.00428942
-0.00500681
-0.00456239
-0.00709136
-0.00880586
-0.0117312
-0.0164306
-0.0230596
-0.0276391
-0.0193643
-0.00702945
-0.0128591
-0.0305131
-0.0262125
-0.0289864
-0.0162164
-0.0148582
-0.0128408
-0.0105991
-0.00911922
-0.00968124
-0.00636807
-0.00353592
-0.00159556
-0.000337321
0.000480777
0.000924326
0.000930835
0.000287641
-0.00153359
-0.00581986
-0.0141978
-0.0266179
0.0266975
-0.00280592
-0.00393967
-0.00497942
-0.00602164
-0.00726863
-0.00943703
-0.0105322
-0.0117395
-0.0110274
-0.0152002
-0.0209375
-0.030591
-0.0467482
-0.0754667
-0.126655
-0.101529