# vtk DataFile Version 4.0
Nusif Fluid VTK output
ASCII
DATASET STRUCTURED_POINTS
DIMENSIONS 40 30 1
ORIGIN 0 0 0 
SPACING 0.2 0.2 1
POINT_DATA 1200 

VECTORS velocity double
-0.00634316 0.00609222  0
-0.0188218 0.0059317  0
-0.0307675 0.0056085  0
-0.0419056 0.00512824  0
-0.051937 0.00450546  0
-0.0606012 0.0037643  0
-0.0676937 0.00293636  0
-0.0730761 0.0020566  0
-0.076679 0.00115878  0
-0.0784955 0.000271839  0
-0.0785697 -0.000582216  0
-0.0769819 -0.00138905  0
-0.0738341 -0.00214134  0
-0.069238 -0.00283654  0
-0.0633087 -0.00347393  0
-0.0561643 -0.00405119  0
-0.0479316 -0.00456166  0
-0.0387566 -0.00499323  0
-0.0288131 -0.00532971  0
-0.0183076 -0.00555499  0
-0.00747298 -0.00565849  0
0.00344668 -0.00563979  0
0.0142193 -0.00551115  0
0.0246448 -0.00529252  0
0.0345636 -0.0050041  0
0.043851 -0.00466096  0
0.0524047 -0.00427001  0
0.0601272 -0.00382958  0
0.0669099 -0.00333004  0
0.0726178 -0.00275442  0
0.077074 -0.00207811  0
0.0800443 -0.00126839  0
0.0812224 -0.000285737  0
0.0802222 0.000910068  0
0.0765911 0.0023452  0
0.0698659 0.00400413  0
0.0596889 0.00579716  0
0.0459764 0.00753954  0
0.0290965 0.00896449  0
0.00997207 0.00978418  0
-0.00651287 0.0184951  0
-0.0193307 0.0180086  0
-0.0316065 0.0170283  0
-0.0430485 0.0155686  0
-0.0533404 0.0136727  0
-0.0622062 0.0114152  0
-0.069432 0.00889482  0
-0.0748781 0.00622051  0
-0.0784812 0.00349691  0
-0.0802458 0.000812806  0
-0.08023 -0.00176519  0
-0.0785281 -0.00419493  0
-0.0752532 -0.00645626  0
-0.0705241 -0.00854399  0
-0.0644579 -0.0104583  0
-0.0571706 -0.0121943  0
-0.0487845 -0.0137325  0
-0.0394408 -0.0150358  0
-0.0293124 -0.0160533  0
-0.0186097 -0.0167335  0
-0.00757536 -0.0170425  0
0.00353426 -0.0169783  0
0.0144766 -0.0165804  0
0.0250478 -0.0159126  0
0.0350913 -0.0150386  0
0.0444903 -0.0140048  0
0.0531504 -0.0128315  0
0.0609804 -0.0115119  0
0.0678736 -0.0100146  0
0.0736913 -0.00828606  0
0.0782481 -0.00624981  0
0.0812966 -0.00380564  0
0.0825141 -0.000834046  0
0.0814981 0.0027847  0
0.0777848 0.00712506  0
0.0709105 0.0121339  0
0.0605296 0.0175355  0
0.0465809 0.0227724  0
0.0294558 0.0270467  0
0.0100905 0.0295019  0
-0.00686788 0.0314762  0
-0.0203932 0.0306529  0
-0.0333553 0.0289862  0
-0.0454275 0.0264906  0
-0.0562552 0.0232371  0
-0.0655295 0.0193587  0
-0.0730174 0.0150336  0
-0.0785782 0.010458  0
-0.0821633 0.00581761  0
-0.0838029 0.00126696  0
-0.0835857 -0.00308135  0
-0.0816348 -0.00716007  0
-0.0780872 -0.0109418  0
-0.0730767 -0.0144259  0
-0.0667259 -0.017621  0
-0.0591469 -0.0205251  0
-0.0504532 -0.0231086  0
-0.040777 -0.0253066  0
-0.0302882 -0.0270265  0
-0.0192047 -0.0281731  0
-0.00778643 -0.028682  0
0.00368721 -0.0285484  0
0.014955 -0.0278466  0
0.0258076 -0.0266962  0
0.0360961 -0.0252129  0
0.0457188 -0.0234778  0
0.0545973 -0.0215227  0
0.062651 -0.01933  0
0.0697751 -0.0168392  0
0.0758229 -0.0139522  0
0.0805905 -0.0105334  0
0.0838039 -0.00640914  0
0.0851082 -0.00137745  0
0.0840694 0.00475757  0
0.0802026 0.012107  0
0.073042 0.0205616  0
0.0622636 0.0296417  0
0.0478451 0.0384082  0
0.0302178 0.045538  0
0.0103442 0.0496239  0
-0.00744242 0.0453967  0
-0.0221113 0.0442216  0
-0.0361791 0.0418176  0
-0.0492587 0.0381826  0
-0.0609294 0.0334163  0
-0.0708282 0.0277263  0
-0.0786945 0.0213948  0
-0.084391 0.0147293  0
-0.0878988 0.00801488  0
-0.0892935 0.00148039  0
-0.0887146 -0.00471426  0
-0.0863335 -0.010482  0
-0.0823257 -0.0157978  0
-0.0768506 -0.0206778  0
-0.070041 -0.0251515  0
-0.0620062 -0.02923  0
-0.0528479 -0.0328773  0
-0.0426859 -0.0359974  0
-0.0316853 -0.0384462  0
-0.0200718 -0.0400714  0
-0.00812572 -0.0407687  0
0.00384653 -0.0405281  0
0.0155629 -0.0394716  0
0.0268114 -0.0377926  0
0.0374572 -0.035671  0
0.0474208 -0.033226  0
0.0566443 -0.0304964  0
0.0650581 -0.0274438  0
0.0725555 -0.0239666  0
0.0789731 -0.0199098  0
0.0840777 -0.0150676  0
0.0875543 -0.00918445  0
0.0890007 -0.00197233  0
0.0879375 0.00683477  0
0.0838487 0.0173657  0
0.0762664 0.0294261  0
0.0648979 0.0423042  0
0.0497755 0.0546669  0
0.0313873 0.0646748  0
0.0107349 0.0703932  0
-0.00830891 0.060769  0
-0.0246987 0.0592169  0
-0.0404173 0.0559852  0
-0.0549759 0.0510308  0
-0.0678488 0.0444905  0
-0.0785959 0.0366777  0
-0.0869254 0.0280197  0
-0.0927179 0.0189745  0
-0.0960103 0.0099516  0
-0.0969544 0.00126476  0
-0.095769 -0.00688041  0
-0.0926961 -0.0143867  0
-0.0879675 -0.0212459  0
-0.0817809 -0.0275076  0
-0.074289 -0.0332392  0
-0.0656032 -0.0384786  0
-0.0558154 -0.0431903  0
-0.0450324 -0.0472445  0
-0.0334122 -0.050435  0
-0.0211837 -0.0525396  0
-0.00864007 -0.0534049  0
0.00389484 -0.0530137  0
0.0161286 -0.0515507  0
0.0278569 -0.0493046  0
0.0389681 -0.0465303  0
0.0494084 -0.0433847  0
0.0591372 -0.039904  0
0.0680879 -0.0360147  0
0.076139 -0.031558  0
0.0830964 -0.0263073  0
0.0886825 -0.0199745  0
0.0925279 -0.0122132  0
0.0941706 -0.00264629  0
0.0930749 0.00905399  0
0.0886882 0.0230081  0
0.0805438 0.0388965  0
0.0683928 0.0557392  0
0.0523392 0.071794  0
0.0329433 0.0847176  0
0.0112554 0.0920764  0
-0.0096113 0.0783217  0
-0.0285745 0.0763408  0
-0.0467198 0.0721081  0
-0.0633837 0.0655144  0
-0.0778862 0.0567673  0
-0.0896959 0.0463434  0
-0.0985035 0.0348776  0
-0.104242 0.0230344  0
-0.107052 0.0113815  0
-0.107208 0.000322973  0
-0.105043 -0.00990073  0
-0.100894 -0.0191995  0
-0.0950674 -0.0275986  0
-0.0878191 -0.0352  0
-0.0793381 -0.0421295  0
-0.0697517 -0.04847  0
-0.059151 -0.0541966  0
-0.047635 -0.0591462  0
-0.0353517 -0.0630458  0
-0.0225194 -0.0655985  0
-0.00941784 -0.0665999  0
0.00364479 -0.0660249  0
0.016395 -0.0641319  0
0.0286576 -0.0613225  0
0.0403539 -0.0579281  0
0.0514512 -0.0541326  0
0.0619106 -0.0499521  0
0.0716444 -0.0452589  0
0.0804905 -0.0398186  0
0.0881988 -0.0333199  0
0.0944275 -0.0253842  0
0.0987411 -0.0155701  0
0.100612 -0.00341037  0
0.0994454 0.0114727  0
0.0946562 0.0291574  0
0.0857906 0.0491494  0
0.0726627 0.0701572  0
0.0554661 0.090018  0
0.034842 0.105905  0
0.0118914 0.114919  0
-0.0116199 0.0991977  0
-0.0345145 0.0966617  0
-0.056258 0.0910652  0
-0.0758868 0.0822402  0
-0.0925194 0.0705673  0
-0.105557 0.0567811  0
-0.114722 0.0418033  0
-0.12007 0.0265851  0
-0.121929 0.0118906  0
-0.120769 -0.00179881  0
-0.117077 -0.014244  0
-0.111301 -0.0253885  0
-0.103839 -0.0353029  0
-0.0950313 -0.0441568  0
-0.0851323 -0.0521567  0
-0.0743117 -0.0594534  0
-0.0626793 -0.0660495  0
-0.0503354 -0.071756  0
-0.0374135 -0.0762438  0
-0.0240926 -0.0791563  0
-0.0105864 -0.0802522  0
0.00287434 -0.0794981  0
0.0160848 -0.0772215  0
0.0289307 -0.0739433  0
0.041378 -0.0700527  0
0.0534006 -0.0657297  0
0.0649252 -0.0609406  0
0.0757996 -0.0554802  0
0.0857749 -0.0490201  0
0.0945031 -0.0411561  0
0.101549 -0.0314235  0
0.106401 -0.0192977  0
0.108475 -0.00422788  0
0.10713 0.0142  0
0.101766 0.035982  0
0.0919679 0.0603872  0
0.0776459 0.0857674  0
0.0591025 0.109545  0
0.0370541 0.128447  0
0.0126348 0.139143  0
-0.0148071 0.125225  0
-0.0438548 0.121754  0
-0.0710006 0.113982  0
-0.0947726 0.101811  0
-0.114078 0.086044  0
-0.128371 0.0677956  0
-0.137532 0.0483348  0
-0.141863 0.0290067  0
-0.142027 0.0108101  0
-0.138794 -0.0057639  0
-0.132826 -0.0205706  0
-0.124671 -0.0336115  0
-0.114832 -0.0449897  0
-0.103772 -0.054943  0
-0.0918634 -0.0637796  0
-0.0793608 -0.0717539  0
-0.0664127 -0.0789287  0
-0.0531286 -0.0851031  0
-0.0396165 -0.0899285  0
-0.0259699 -0.0930367  0
-0.012255 -0.0941901  0
0.00145628 -0.0933294  0
0.0150835 -0.0908249  0
0.0286143 -0.0873133  0
0.0420806 -0.0831928  0
0.0554426 -0.0785705  0
0.0685368 -0.0733148  0
0.0810804 -0.0671201  0
0.0926688 -0.0595398  0
0.102784 -0.0500757  0
0.110843 -0.038205  0
0.116253 -0.0233739  0
0.118403 -0.00497108  0
0.116652 0.0174425  0
0.110414 0.0437464  0
0.099351 0.0728882  0
0.0835301 0.102812  0
0.0633887 0.130585  0
0.0396855 0.152557  0
0.0135295 0.165007  0
-0.0199674 0.159349  0
-0.0587211 0.154321  0
-0.0938854 0.142915  0
-0.1233 0.125419  0
-0.145768 0.103632  0
-0.161087 0.0792462  0
-0.169522 0.0538894  0
-0.17183 0.0294804  0
-0.169243 0.00729456  0
-0.162967 -0.0123794  0
-0.153799 -0.029711  0
-0.1423 -0.0447422  0
-0.129089 -0.0575222  0
-0.114836 -0.0683339  0
-0.100124 -0.0776164  0
-0.0853464 -0.0858022  0
-0.0706877 -0.0930911  0
-0.0562503 -0.0992654  0
-0.0421049 -0.104027  0
-0.0282042 -0.107089  0
-0.0143581 -0.108301  0
-0.000405605 -0.107484  0
0.0137197 -0.105024  0
0.0281602 -0.101686  0
0.043076 -0.0978032  0
0.0584105 -0.0932576  0
0.0738299 -0.0877423  0
0.0888377 -0.080845  0
0.102781 -0.0719479  0
0.114851 -0.0604528  0
0.124203 -0.0458396  0
0.130143 -0.027689  0
0.132126 -0.00538788  0
0.129592 0.0215448  0
0.121987 0.0528889  0
0.109085 0.0871056  0
0.0912321 0.121656  0
0.0690564 0.153449  0
0.0432678 0.178578  0
0.0147846 0.193018  0
-0.0277878 0.206508  0
-0.0810828 0.198376  0
-0.127872 0.180351  0
-0.164983 0.154066  0
-0.19119 0.123226  0
-0.207068 0.090406  0
-0.213694 0.057327  0
-0.212581 0.0267396  0
-0.205922 0.000258709  0
-0.19551 -0.0225946  0
-0.182058 -0.0427011  0
-0.165945 -0.0599623  0
-0.14797 -0.0740913  0
-0.129212 -0.0853824  0
-0.110634 -0.0944659  0
-0.0928416 -0.102131  0
-0.0759346 -0.108937  0
-0.0599197 -0.11448  0
-0.0448634 -0.118621  0
-0.0305563 -0.121309  0
-0.0164029 -0.122687  0
-0.00196232 -0.122097  0
0.0129089 -0.120013  0
0.028585 -0.11742  0
0.0455422 -0.114549  0
0.063769 -0.110679  0
0.0826236 -0.105201  0
0.101304 -0.0976808  0
0.118811 -0.0871684  0
0.133838 -0.0729331  0
0.145044 -0.0545217  0
0.151588 -0.0320949  0
0.153161 -0.00514006  0
0.149408 0.0269802  0
0.139714 0.0641382  0
0.123975 0.103876  0
0.10313 0.14297  0
0.0780763 0.178755  0
0.0492903 0.207238  0
0.0170131 0.224512  0
-0.0387369 0.272643  0
-0.111894 0.258093  0
-0.173871 0.228903  0
-0.220808 0.188939  0
-0.25137 0.144438  0
-0.267407 0.100422  0
-0.271431 0.0573042  0
-0.265682 0.0192746  0
-0.253728 -0.0114954  0
-0.238176 -0.0374014  0
-0.219212 -0.0608998  0
-0.196628 -0.0810529  0
-0.171738 -0.0964616  0
-0.146559 -0.107549  0
-0.122772 -0.115266  0
-0.101291 -0.121208  0
-0.081633 -0.127028  0
-0.0634115 -0.131229  0
-0.0469414 -0.134002  0
-0.0319856 -0.135794  0
-0.0172884 -0.137656  0
-0.00206016 -0.1374  0
0.0137003 -0.135946  0
0.0307096 -0.134777  0
0.0502228 -0.134266  0
0.0724913 -0.132061  0
0.0962654 -0.127051  0
0.12038 -0.119228  0
0.143423 -0.106774  0
0.163271 -0.0888053  0
0.177629 -0.0648154  0
0.185401 -0.0367173  0
0.186806 -0.00409831  0
0.181724 0.0341592  0
0.169026 0.0787299  0
0.148808 0.124634  0
0.123518 0.167749  0
0.0943252 0.207619  0
0.0611207 0.239761  0
0.02178 0.263004  0
-0.0504956 0.361497  0
-0.14423 0.335451  0
-0.22242 0.291145  0
-0.281837 0.232527  0
-0.318283 0.167326  0
-0.336265 0.110991  0
-0.339736 0.0536385  0
-0.328847 0.00568915  0
-0.310389 -0.0289366  0
-0.289075 -0.0574341  0
-0.263359 -0.0861474  0
-0.231344 -0.111002  0
-0.19604 -0.127305  0
-0.161837 -0.136687  0
-0.1317 -0.140651  0
-0.106925 -0.14268  0
-0.0848952 -0.147844  0
-0.0640129 -0.150118  0
-0.0457554 -0.150443  0
-0.0303981 -0.150269  0
-0.0155608 -0.153318  0
0.000107944 -0.153238  0
0.0161293 -0.152493  0
0.0336306 -0.153344  0
0.0554255 -0.15761  0
0.0825356 -0.158698  0
0.112536 -0.15479  0
0.144114 -0.147783  0
0.175475 -0.133224  0
0.203181 -0.110511  0
0.22323 -0.0781172  0
0.23418 -0.0427404  0
0.237218 -0.00312789  0
0.232051 0.0428193  0
0.215004 0.0992097  0
0.187488 0.151296  0
0.156795 0.196467  0
0.123041 0.241245  0
0.0854688 0.276312  0
0.0330886 0.317571  0
-0.0523876 0.464059  0
-0.152223 0.425864  0
-0.24262 0.368748  0
-0.316491 0.287617  0
-0.362081 0.193684  0
-0.394783 0.134741  0
-0.408284 0.0462798  0
-0.389638 -0.0170796  0
-0.362425 -0.0524331  0
-0.336457 -0.0818192  0
-0.30414 -0.120399  0
-0.258768 -0.15474  0
-0.20826 -0.16998  0
-0.163008 -0.174068  0
-0.127567 -0.169448  0
-0.103 -0.163825  0
-0.081345 -0.170984  0
-0.0584051 -0.171401  0
-0.0386464 -0.167777  0
-0.0239428 -0.163597  0
-0.0104401 -0.168932  0
0.00417122 -0.168506  0
0.0188172 -0.168494  0
0.0348343 -0.171462  0
0.0570866 -0.18414  0
0.0879441 -0.190737  0
0.123387 -0.188795  0
0.163019 -0.185591  0
0.20475 -0.16911  0
0.243125 -0.141307  0
0.271751 -0.096599  0
0.289173 -0.0532356  0
0.298389 -0.00549829  0
0.298305 0.0498365  0
0.273574 0.133378  0
0.23156 0.186057  0
0.195801 0.227556  0
0.16032 0.278791  0
0.129608 0.30645  0
0.0592312 0.409591  0
-0.0349812 0.551121  0
-0.1119 0.515119  0
-0.190731 0.448453  0
-0.25489 0.345657  0
-0.31765 0.243698  0
-0.413834 0.213316  0
-0.454175 0.0210995  0
-0.411697 -0.0536176  0
-0.377204 -0.0781944  0
-0.354728 -0.105097  0
-0.321472 -0.16329  0
-0.261372 -0.21792  0
-0.193864 -0.225416  0
-0.14118 -0.217167  0
-0.106506 -0.197062  0
-0.0875386 -0.180344  0
-0.0703754 -0.193883  0
-0.0485283 -0.193888  0
-0.0287509 -0.185425  0
-0.0147759 -0.175227  0
-0.00326755 -0.182913  0
0.0087965 -0.1818  0
0.021189 -0.182838  0
0.0352972 -0.187844  0
0.0560606 -0.211375  0
0.0861821 -0.225082  0
0.122205 -0.226516  0
0.16565 -0.231548  0
0.213821 -0.213655  0
0.259471 -0.181386  0
0.295182 -0.12146  0
0.320155 -0.0713717  0
0.339493 -0.0165194  0
0.356553 0.0432852  0
0.31915 0.201467  0
0.247719 0.230811  0
0.197408 0.268275  0
0.139398 0.331114  0
0.0939428 0.329995  0
0.0406973 0.50937  0
0 0.585956  0
-0.0410641 0.571506  0
-0.0986644 0.242674  0
-0.151813 0.186461  0
-0.268192 0.139596  0
-0.338969 0.137304  0
-0.329979 0.000600954  0
-0.32911 -0.0767647  0
-0.326586 -0.0923615  0
-0.319047 -0.121241  0
-0.289451 -0.210293  0
-0.229321 -0.291445  0
-0.166729 -0.28229  0
-0.123311 -0.256694  0
-0.0951517 -0.220667  0
-0.0742341 -0.196924  0
-0.0578402 -0.21116  0
-0.0439836 -0.212614  0
-0.0282547 -0.202505  0
-0.0114052 -0.189271  0
0.00210944 -0.194191  0
0.0126751 -0.193452  0
0.0257323 -0.196936  0
0.0440051 -0.206427  0
0.0654132 -0.235263  0
0.0890252 -0.255227  0
0.120223 -0.263893  0
0.157043 -0.274736  0
0.195268 -0.257161  0
0.231493 -0.220056  0
0.264301 -0.151611  0
0.290662 -0.0928557  0
0.305575 -0.0295848  0
0.307161 0.0374061  0
0.290291 0.261318  0
0.270123 0.26226  0
0.263732 0.293228  0
0.195851 0.328625  0
0.00091974 0.171271  0
-0.063065 0.275034  0
0 0.292978  0
0 0.292978  0
0 0  0
0 0  0
0 0  0
-0.16499 0.000300477  0
-0.290862 0.000300477  0
-0.281801 -0.0388172  0
-0.30184 -0.0470078  0
-0.249052 -0.063563  0
-0.189082 -0.117002  0
-0.192092 -0.163932  0
-0.193691 -0.154231  0
-0.161751 -0.13697  0
-0.128658 -0.11579  0
-0.0812497 -0.103464  0
-0.0512634 -0.108775  0
-0.047375 -0.110041  0
-0.039366 -0.105383  0
-0.0172295 -0.0989294  0
0.00272511 -0.0995591  0
0.0152933 -0.0995451  0
0.0348276 -0.102177  0
0.0647364 -0.10864  0
0.0909153 -0.122909  0
0.107133 -0.134143  0
0.132789 -0.141016  0
0.15438 -0.146708  0
0.166928 -0.138353  0
0.177009 -0.118368  0
0.197477 -0.0838688  0
0.223925 -0.0515451  0
0.233781 -0.0171315  0
0.152481 0.0202489  0
0.176215 0.137548  0
0.261057 0.134325  0
0.251443 0.146614  0
0.131866 0.146614  0
0 0  0
0 0  0
0 0  0
0 0  0
0 0  0
0 0  0
0 0  0
0 0  0
0 0  0
0 0  0
0 0  0
0 0  0
0 0  0
0 0  0
0 0  0
0 0  0
0 0  0
0 0  0
0 0  0
0 0  0
0 0  0
0 0  0
0 0  0
0 0  0
0 0  0
0 0  0
0 0  0
0 0  0
0 0  0
0 0  0
0 0  0
0 0  0
0 0  0
0 0  0
0 0  0
0 0  0
0 0  0
0 0  0
0 0  0
0 0  0
0 0  0
0 0  0
0 0  0
0 0  0
0 0  0
0 0  0
0 0  0
0 0  0
0 0  0
0 0  0
0 0  0
0 0  0
0 0  0
0 0  0
0 0  0
0 0  0
0 0  0
0 0  0
0 0  0
0 0  0
0 0  0
0 0  0
0 0  0
0 0  0
0 0  0
0 0  0
0 0  0
0 0  0
0 0  0
0 0  0
0 0  0
0 0  0
0 0  0
0 0  0
0 0  0
0 0  0
0 0  0
0 0  0
0 0  0
0 0  0
0 0  0
0 0  0
0 0  0
0 0  0
0 0  0
0 0  0
0 0  0
0 0  0
0 0  0
0 0  0
0 0  0
0 0  0
0 0  0
0 0  0
0 0  0
0 0  0
0 0  0
0 0  0
0 0  0
0 0  0
0 0  0
0 0  0
0 0  0
0 0  0
0 0  0
0 0  0
0 0  0
0 0  0
0 0  0
0 0  0
0 0  0
0 0  0
0 0  0
0 0  0
0 0  0
0 0  0
0 0  0
0 0  0
0 0  0
0 0  0
0 0  0
0 0  0
0 0  0
0 0  0
0 0  0
0 0  0
0 0  0
0 0  0
0 0  0
0 0  0
0 0  0
0 0  0
0 0  0
0 0  0
0 0  0
0 0  0
0 0  0
0 0  0
0 0  0
0 0  0
0 0  0
0 0  0
0 0  0
0 0  0
0 0  0
0 0  0
0 0  0
0 0  0
0 0  0
0 0  0
0 0  0
0 0  0
0 0  0
0 0  0
0 0  0
0 0  0
0 0  0
0 0  0
0 0  0
0 0  0
0 0  0
0 0  0
0 0  0
0 0  0
0 0  0
0 0  0
0 0  0
0 0  0
0 0  0
0 0  0
0 0  0
0 0  0
0 0  0
0 0  0
0 0  0
0 0  0
0 0  0
0 0  0
0 0  0
0 0  0
0 0  0
0 0  0
0 0  0
0 0  0
0 0  0
0 0  0
0 0  0
0 0  0
0 0  0
0 0  0
0 0  0
0 0  0
0 0  0
0 0  0
0 0  0
0 0  0
0 0  0
0 0  0
0 0  0
0 0  0
0 0  0
0 0  0
0 0  0
0 0  0
0 0  0
0 0  0
0 0  0
0 0  0
0 0  0
0 0  0
0 0  0
0 0  0
0 0  0
0 0  0
0 0  0
0 0  0
0 0  0
0 0  0
0 0  0
0 0  0
0 0  0
0 0  0
0 0  0
0 0  0
0 0  0
0 0  0
0 0  0
0 0  0
0 0  0
0 0  0
0 0  0
0 0  0
0 0  0
0 0  0
0 0  0
0 0  0
0 0  0
0 0  0
0 0  0
0 0  0
0 0  0
0 0  0
0 0  0
0 0  0
0 0  0
0 0  0
0 0  0
0 0  0
0 0  0
0 0  0
0 0  0
0 0  0
0 0  0
0 0  0
0 0  0
0 0  0
0 0  0
0 0  0
0 0  0
0 0  0
0 0  0
0 0  0
0 0  0
0 0  0
0 0  0
0 0  0
0 0  0
0 0  0
0 0  0
0 0  0
0 0  0
0 0  0
0 0  0
0 0  0
0 0  0
0 0  0
0 0  0
0 0  0
0 0  0
0 0  0
0 0  0
0 0  0
0 0  0
0 0  0
0 0  0
0 0  0
0 0  0
0 0  0
0 0  0
0 0  0
0 0  0
0 0  0
0 0  0
0 0  0
0 0  0
0 0  0
0 0  0
0 0  0
0 0  0
0 0  0
0 0  0
0 0  0
0 0  0
0 0  0
0 0  0
0 0  0
0 0  0
0 0  0
0 0  0
0 0  0
0 0  0
0 0  0
0 0  0
0 0  0
0 0  0
0 0  0
0 0  0
0 0  0
0 0  0
0 0  0
0 0  0
0 0  0
0 0  0
0 0  0
0 0  0
0 0  0
0 0  0
0 0  0
0 0  0
0 0  0
0 0  0
0 0  0
0 0  0
0 0  0
0 0  0
0 0  0
0 0  0
0 0  0
0 0  0
0 0  0
0 0  0
0 0  0
0 0  0
0 0  0
0 0  0
0 0  0
0 0  0
0 0  0
0 0  0
0 0  0
0 0  0
0 0  0
0 0  0
0 0  0
0 0  0
0 0  0
0 0  0
0 0  0
0 0  0
0 0  0
0 0  0
0 0  0
0 0  0
0 0  0
0 0  0
0 0  0
0 0  0
0 0  0
0 0  0
0 0  0
0 0  0
0 0  0
0 0  0
0 0  0
0 0  0
0 0  0
0 0  0
0 0  0
0 0  0
0 0  0
0 0  0
0 0  0
0 0  0
0 0  0
0 0  0
0 0  0
0 0  0
0 0  0
0 0  0
0 0  0
0 0  0
0 0  0
0 0  0
0 0  0
0 0  0
0 0  0
0 0  0
0 0  0
0 0  0
0 0  0
0 0  0
0 0  0
0 0  0
0 0  0
0 0  0
0 0  0
0 0  0
0 0  0
0 0  0
0 0  0
0 0  0
0 0  0
0 0  0
0 0  0
0 0  0
0 0  0
0 0  0
0 0  0
0 0  0
0 0  0
0 0  0
0 0  0
0 0  0
0 0  0
0 0  0
0 0  0
0 0  0
0 0  0
0 0  0
0 0  0
0 0  0
0 0  0
0 0  0
0 0  0
0 0  0
0 0  0
0 0  0
0 0  0
0 0  0
0 0  0
0 0  0
0 0  0
0 0  0
0 0  0
0 0  0
0 0  0
0 0  0
0 0  0
0 0  0
0 0  0
0 0  0
0 0  0
0 0  0
0 0  0
0 0  0
0 0  0
0 0  0
0 0  0
0 0  0
0 0  0
0 0  0
0 0  0
0 0  0
0 0  0
0 0  0
0 0  0
0 0  0
0 0  0
0 0  0
0 0  0
0 0  0
0 0  0
0 0  0
0 0  0
0 0  0
0 0  0
0 0  0
0 0  0
0 0  0
0 0  0
0 0  0
0 0  0
0 0  0
0 0  0
0 0  0
0 0  0
0 0  0
0 0  0
0 0  0
0 0  0
0 0  0
0 0  0
0 0  0
0 0  0
0 0  0
0 0  0
0 0  0
0 0  0
0 0  0
0 0  0
0 0  0
0 0  0
0 0  0
0 0  0
0 0  0
0 0  0
0 0  0
0 0  0
0 0  0
0 0  0
0 0  0
0 0  0
0 0  0
0 0  0
0 0  0
0 0  0
0 0  0
0 0  0
0 0  0
0 0  0
0 0  0
0 0  0
0 0  0
0 0  0
0 0  0
0 0  0
0 0  0
0 0  0
0 0  0
0 0  0
0 0  0
0 0  0
0 0  0
0 0  0
0 0  0
0 0  0
0 0  0
0 0  0
0 0  0
0 0  0
0 0  0
0 0  0
0 0  0
0 0  0
0 0  0
0 0  0
0 0  0
0 0  0
0 0  0
0 0  0
0 0  0
0 0  0
0 0  0
0 0  0
0 0  0
0 0  0
0 0  0
0 0  0
0 0  0
0 0  0
0 0  0
0 0  0

SCALARS pressure double 1
LOOKUP_TABLE default
3.45682
3.45691
3.45761
3.45889
3.46072
3.46305
3.46582
3.46893
3.4723
3.47582
3.47941
3.48297
3.48642
3.48969
3.49274
3.49553
3.498
3.50015
3.50195
3.50338
3.50444
3.50515
3.50552
3.50555
3.50523
3.50458
3.50363
3.5024
3.50091
3.49922
3.49738
3.49545
3.49353
3.49172
3.49012
3.48881
3.48787
3.48729
3.48702
3.48697
3.24891
3.24899
3.2497
3.25102
3.25292
3.25533
3.25819
3.2614
3.26487
3.26848
3.27214
3.27575
3.27923
3.28252
3.28557
3.28834
3.2908
3.29293
3.29471
3.29613
3.29717
3.29787
3.29825
3.29828
3.29797
3.29733
3.29639
3.29516
3.29367
3.29195
3.29007
3.28808
3.28608
3.28416
3.28244
3.28102
3.27996
3.27928
3.27894
3.27885
3.03349
3.03359
3.03436
3.0358
3.03785
3.04046
3.04354
3.04699
3.05067
3.05448
3.0583
3.06203
3.06558
3.0689
3.07196
3.07471
3.07715
3.07924
3.08099
3.08238
3.0834
3.08409
3.08447
3.08451
3.08422
3.0836
3.08267
3.08145
3.07994
3.07818
3.07621
3.0741
3.07192
3.06979
3.06782
3.06612
3.0648
3.06388
3.06336
3.06318
2.81049
2.81063
2.81152
2.81315
2.81547
2.81841
2.82186
2.82568
2.82973
2.83386
2.83792
2.84183
2.84549
2.84886
2.85192
2.85464
2.85703
2.85907
2.86076
2.86211
2.8631
2.86378
2.86417
2.86423
2.86397
2.86339
2.86249
2.86127
2.85974
2.85792
2.85583
2.85353
2.85108
2.8486
2.84623
2.84409
2.84232
2.841
2.84018
2.83984
2.57978
2.57998
2.58103
2.58293
2.58563
2.58906
2.59306
2.59745
2.60203
2.60661
2.61103
2.61517
2.61897
2.6224
2.62544
2.62811
2.63042
2.63238
2.63399
2.63527
2.63623
2.63689
2.63729
2.63739
2.63718
2.63666
2.63582
2.63463
2.6331
2.6312
2.62896
2.62641
2.6236
2.62063
2.61766
2.61485
2.61239
2.61046
2.60917
2.60858
2.34118
2.34144
2.34268
2.34492
2.34815
2.35225
2.35704
2.36224
2.36757
2.37278
2.37767
2.38211
2.38606
2.38953
2.39253
2.3951
2.39728
2.39912
2.40062
2.40182
2.40272
2.40336
2.40379
2.40395
2.40383
2.40341
2.40266
2.40154
2.40002
2.39807
2.39566
2.39281
2.38953
2.38591
2.38211
2.37834
2.37487
2.37201
2.37002
2.36906
2.0944
2.0947
2.09612
2.09878
2.10269
2.10774
2.11364
2.11999
2.12637
2.13243
2.1379
2.14269
2.1468
2.15026
2.15316
2.15557
2.15758
2.15923
2.16059
2.16167
2.16251
2.16313
2.16361
2.16386
2.16387
2.1636
2.16299
2.16199
2.16054
2.15857
2.15601
2.15283
2.14899
2.14454
2.13962
2.13448
2.12955
2.12532
2.12229
2.12079
1.83903
1.83929
1.84083
1.84391
1.8487
1.85509
1.86264
1.87066
1.87849
1.88565
1.89184
1.89702
1.90124
1.90463
1.90733
1.9095
1.91124
1.91266
1.91382
1.91476
1.91552
1.91613
1.91667
1.91704
1.91723
1.91717
1.91678
1.91598
1.91466
1.91274
1.91008
1.90659
1.90215
1.89668
1.89029
1.88325
1.87616
1.86991
1.86537
1.8631
1.57669
1.57926
1.58205
1.58548
1.5905
1.59763
1.60647
1.61598
1.62515
1.63323
1.63997
1.64536
1.64952
1.65266
1.65502
1.65682
1.65823
1.65934
1.66025
1.66103
1.6617
1.66229
1.66289
1.66342
1.66383
1.66404
1.66395
1.66343
1.66236
1.6606
1.65797
1.65426
1.64922
1.64261
1.63435
1.62466
1.61446
1.60517
1.59837
1.595
1.31179
1.31108
1.30914
1.31003
1.31539
1.32536
1.33847
1.35203
1.36421
1.3741
1.38183
1.38756
1.39161
1.39437
1.39624
1.39757
1.39858
1.39936
1.4
1.40058
1.40115
1.40171
1.40236
1.40304
1.40371
1.40425
1.40451
1.40438
1.40367
1.4022
1.39975
1.39602
1.39056
1.38282
1.37235
1.35917
1.34424
1.33008
1.32004
1.31533
1.03448
1.02818
1.02311
1.02227
1.02801
1.04153
1.06104
1.08037
1.09638
1.10854
1.11737
1.12338
1.12717
1.12942
1.13071
1.13152
1.13215
1.1326
1.13296
1.13333
1.13378
1.13428
1.13494
1.13573
1.13664
1.13751
1.13814
1.13842
1.13815
1.13711
1.13502
1.13156
1.12608
1.11768
1.1051
1.08703
1.06468
1.04253
1.02782
1.02199
0.746353
0.728021
0.71593
0.712395
0.719484
0.739892
0.772923
0.801998
0.822674
0.836843
0.84638
0.852427
0.855774
0.857403
0.858057
0.858373
0.858729
0.858945
0.859056
0.85922
0.859566
0.859959
0.860532
0.861292
0.862342
0.863416
0.864283
0.864931
0.865033
0.864422
0.862786
0.859939
0.855339
0.847396
0.83326
0.80895
0.775233
0.737782
0.717214
0.712148
0.44923
0.400012
0.381801
0.375463
0.383424
0.411387
0.475495
0.519612
0.544879
0.559605
0.568395
0.573762
0.5765
0.577648
0.577888
0.577875
0.57817
0.57829
0.578229
0.578236
0.578532
0.578797
0.579113
0.57959
0.580506
0.581461
0.582216
0.582953
0.583138
0.582714
0.581453
0.579753
0.576953
0.57142
0.558157
0.528399
0.47836
0.405089
0.379571
0.380025
0.172359
0.0189194
0.018529
0.0134371
0.017449
0.0298042
0.183496
0.243887
0.268205
0.278413
0.282254
0.2848
0.287503
0.289079
0.289837
0.289954
0.290533
0.290575
0.290409
0.290387
0.29092
0.291007
0.290842
0.290595
0.290981
0.291239
0.291161
0.291478
0.291382
0.291047
0.290288
0.290265
0.289926
0.288316
0.281249
0.25523
0.193793
0.0143723
0.00578749
0.0204353
0.0421476
0
0
0
0
0
-0.0149078
-0.000284103
-0.000711724
-0.00239932
-0.0117575
-0.019046
-0.0131727
-0.00864961
-0.00533204
-0.00491008
-0.00317598
-0.00377785
-0.00414981
-0.0042894
-0.0024251
-0.0027927
-0.00367057
-0.0054119
-0.00527038
-0.00654626
-0.00914198
-0.00947375
-0.00990685
-0.00838919
-0.00805251
-0.00503961
-0.00225927
0.00155251
0.0071896
0.00273117
0.0138192
0
0
0
0
0
0
0
0
0
0
0
0
0
0
0
0
0
0
0
0
0
0
0
0
0
0
0
0
0
0
0
0
0
0
0
0
0
0
0
0
0
0
0
0
0
0
0
0
0
0
0
0
0
0
0
0
0
0
0
0
0
0
0
0
0
0
0
0
0
0
0
0
0
0
0
0
0
0
0
0
0
0
0
0
0
0
0
0
0
0
0
0
0
0
0
0
0
0
0
0
0
0
0
0
0
0
0
0
0
0
0
0
0
0
0
0
0
0
0
0
0
0
0
0
0
0
0
0
0
0
0
0
0
0
0
0
0
0
0
0
0
0
0
0
0
0
0
0
0
0
0
0
0
0
0
0
0
0
0
0
0
0
0
0
0
0
0
0
0
0
0
0
0
0
0
0
0
0
0
0
0
0
0
0
0
0
0
0
0
0
0
0
0
0
0
0
0
0
0
0
0
0
0
0
0
0
0
0
0
0
0
0
0
0
0
0
0
0
0
0
0
0
0
0
0
0
0
0
0
0
0
0
0
0
0
0
0
0
0
0
0
0
0
0
0
0
0
0
0
0
0
0
0
0
0
0
0
0
0
0
0
0
0
0
0
0
0
0
0
0
0
0
0
0
0
0
0
0
0
0
0
0
0
0
0
0
0
0
0
0
0
0
0
0
0
0
0
0
0
0
0
0
0
0
0
0
0
0
0
0
0
0
0
0
0
0
0
0
0
0
0
0
0
0
0
0
0
0
0
0
0
0
0
0
0
0
0
0
0
0
0
0
0
0
0
0
0
0
0
0
0
0
0
0
0
0
0
0
0
0
0
0
0
0
0
0
0
0
0
0
0
0
0
0
0
0
0
0
0
0
0
0
0
0
0
0
0
0
0
0
0
0
0
0
0
0
0
0
0
0
0
0
0
0
0
0
0
0
0
0
0
0
0
0
0
0
0
0
0
0
0
0
0
0
0
0
0
0
0
0
0
0
0
0
0
0
0
0
0
0
0
0
0
0
0
0
0
0
0
0
0
0
0
0
0
0
0
0
0
0
0
0
0
0
0
0
0
0
0
0
0
0
0
0
0
0
0
0
0
0
0
0
0
0
0
0
0
0
0
0
0
0
0
0
0
0
0
0
0
0
0
0
0
0
0
0
0
0
0
0
0
0
0
0
0
0
0
0
0
0
0
0
0
0
0
0
0
0
0
0
0
0
0
0
0
0
0
0
0
0
0
0
0
0
0
0
0
0
0
0
0
0
0
0
0
0
0
0
0
0
0
0
0
0
0
0
0
0
0
0
0
0
0
0
0
0
0
0
0
0
0
0
0
0
0
0
0
0
0
0
0
0
0
0
0
0
0
0
0
0
0
0
0
SCALARS rhs double 1
LOOKUP_TABLE default
-5.29608
-5.23637
-5.23409
-5.23211
-5.23016
-5.22837
-5.22681
-5.22557
-5.2247
-5.22419
-5.22403
-5.22419
-5.22463
-5.22528
-5.22607
-5.22694
-5.22783
-5.22865
-5.22932
-5.22975
-5.22942
-5.22874
-5.22936
-5.22874
-5.22796
-5.22709
-5.22617
-5.22522
-5.22427
-5.22332
-5.22242
-5.22165
-5.22114
-5.22107
-5.2217
-5.22332
-5.22612
-5.22992
-5.23388
-5.23916
-0.237312
-0.180745
-0.179463
-0.178269
-0.176947
-0.175633
-0.174464
-0.173546
-0.172941
-0.172702
-0.172795
-0.173082
-0.173572
-0.174224
-0.174985
-0.175813
-0.176648
-0.177427
-0.178066
-0.17849
-0.178152
-0.177517
-0.178249
-0.177744
-0.177117
-0.176425
-0.175703
-0.17497
-0.174239
-0.173526
-0.172866
-0.172327
-0.172023
-0.172086
-0.17301
-0.175053
-0.178423
-0.182868
-0.187429
-0.193128
-0.23393
-0.179872
-0.178643
-0.177465
-0.176135
-0.174797
-0.173596
-0.172647
-0.172009
-0.171787
-0.171902
-0.172154
-0.172612
-0.173236
-0.173971
-0.174786
-0.175619
-0.176402
-0.177049
-0.177469
-0.177072
-0.17638
-0.17713
-0.176585
-0.175934
-0.175238
-0.17453
-0.173822
-0.173121
-0.172442
-0.171824
-0.171344
-0.171116
-0.17123
-0.172301
-0.174497
-0.177973
-0.182437
-0.186937
-0.192691
-0.231021
-0.179924
-0.178756
-0.177583
-0.176215
-0.174807
-0.173521
-0.172481
-0.171758
-0.171544
-0.17162
-0.17179
-0.172179
-0.172734
-0.17342
-0.174196
-0.175013
-0.175791
-0.176434
-0.176838
-0.176356
-0.175567
-0.176355
-0.17576
-0.175089
-0.1744
-0.173721
-0.173055
-0.172403
-0.171779
-0.171226
-0.17084
-0.170738
-0.170966
-0.172271
-0.174705
-0.17835
-0.182857
-0.187287
-0.193152
-0.2287
-0.180941
-0.179855
-0.178675
-0.177227
-0.175679
-0.174216
-0.172988
-0.172088
-0.171893
-0.171799
-0.171811
-0.172057
-0.172488
-0.17307
-0.173766
-0.174525
-0.175263
-0.17587
-0.176233
-0.175659
-0.174716
-0.17558
-0.174955
-0.174291
-0.173644
-0.173026
-0.172429
-0.171846
-0.171294
-0.170831
-0.170571
-0.170641
-0.17104
-0.172655
-0.175399
-0.179263
-0.183832
-0.188187
-0.194231
-0.227975
-0.183778
-0.182779
-0.181544
-0.179921
-0.178096
-0.176284
-0.174682
-0.173421
-0.173279
-0.172769
-0.172479
-0.172457
-0.172653
-0.17303
-0.173549
-0.174158
-0.174769
-0.175267
-0.175534
-0.174897
-0.17372
-0.174743
-0.174156
-0.173586
-0.173061
-0.172567
-0.172081
-0.171594
-0.171134
-0.170782
-0.170685
-0.170969
-0.171564
-0.173548
-0.176642
-0.180741
-0.185372
-0.189647
-0.19595
-0.231031
-0.190284
-0.18927
-0.187783
-0.185748
-0.183365
-0.180858
-0.178507
-0.176534
-0.176601
-0.175159
-0.174321
-0.173812
-0.173569
-0.173543
-0.173693
-0.173966
-0.174275
-0.174522
-0.174611
-0.173999
-0.172482
-0.173824
-0.173431
-0.173129
-0.172882
-0.172629
-0.172336
-0.171997
-0.171668
-0.171472
-0.171608
-0.17216
-0.172914
-0.175311
-0.178736
-0.182992
-0.187601
-0.191745
-0.198386
-0.242829
-0.204571
-0.203004
-0.200552
-0.197443
-0.193886
-0.18998
-0.186124
-0.183333
-0.182906
-0.180091
-0.178314
-0.176934
-0.175867
-0.175065
-0.174498
-0.174123
-0.173842
-0.173618
-0.173426
-0.172997
-0.17103
-0.172949
-0.17301
-0.173282
-0.173594
-0.173804
-0.173886
-0.173849
-0.173791
-0.173902
-0.174476
-0.175435
-0.176243
-0.179153
-0.182797
-0.186901
-0.191154
-0.19493
-0.201973
-0.274532
-0.235496
-0.231425
-0.225778
-0.219743
-0.213662
-0.206962
-0.200097
-0.197584
-0.193286
-0.189347
-0.186064
-0.183116
-0.180485
-0.1782
-0.17634
-0.174905
-0.173655
-0.17269
-0.172125
-0.172039
-0.169741
-0.172343
-0.173256
-0.174615
-0.176005
-0.177118
-0.178042
-0.178777
-0.179454
-0.180312
-0.181864
-0.183579
-0.184461
-0.188268
-0.191869
-0.194982
-0.198006
-0.200737
-0.20842
-0.348628
-0.299193
-0.286947
-0.272584
-0.258848
-0.247636
-0.23588
-0.223321
-0.222017
-0.210968
-0.205311
-0.19988
-0.194047
-0.188391
-0.183266
-0.179245
-0.176524
-0.17395
-0.171948
-0.170926
-0.171202
-0.16926
-0.172009
-0.174282
-0.177645
-0.181136
-0.183982
-0.186856
-0.189557
-0.19223
-0.19478
-0.198298
-0.201415
-0.203333
-0.209257
-0.212081
-0.212253
-0.212517
-0.213025
-0.223453
-0.49556
-0.410409
-0.378128
-0.346218
-0.314312
-0.29611
-0.27814
-0.260278
-0.249831
-0.235139
-0.230231
-0.222868
-0.211662
-0.200215
-0.189578
-0.182109
-0.178971
-0.175031
-0.171534
-0.169651
-0.170686
-0.168604
-0.171888
-0.175265
-0.182357
-0.189844
-0.195558
-0.202585
-0.209356
-0.216491
-0.221751
-0.227952
-0.233741
-0.240781
-0.25215
-0.250572
-0.243849
-0.240867
-0.239178
-0.267594
-0.693329
-0.531248
-0.469277
-0.411169
-0.346895
-0.344318
-0.326685
-0.309498
-0.263043
-0.25668
-0.26344
-0.260414
-0.239134
-0.21713
-0.195744
-0.182252
-0.181657
-0.177498
-0.171695
-0.167441
-0.16933
-0.166645
-0.170796
-0.174559
-0.187945
-0.201778
-0.210906
-0.225811
-0.237577
-0.250718
-0.256006
-0.262765
-0.276087
-0.300275
-0.327802
-0.30009
-0.279063
-0.276977
-0.287354
-0.429936
-0.734125
-0.531955
-0.420164
-0.26612
-0.245189
-0.421671
-0.362024
-0.301382
-0.23429
-0.245859
-0.289375
-0.323277