# vtk DataFile Version 4.0
Nusif Fluid VTK output
ASCII
DATASET STRUCTURED_POINTS
DIMENSIONS 40 30 1
ORIGIN 0 0 0 
SPACING 0.2 0.2 1
POINT_DATA 1200 

VECTORS velocity double
-0.00589037 0.00617201  0
-0.0175592 0.00602256  0
-0.028819 0.00572551  0
-0.0393428 0.0052868  0
-0.0488613 0.00472082  0
-0.0571412 0.00404957  0
-0.064 0.00330102  0
-0.0693127 0.00250503  0
-0.0730121 0.00168948  0
-0.075082 0.000877439  0
-0.0755467 8.60533e-05  0
-0.0744584 -0.000673555  0
-0.0718872 -0.00139518  0
-0.067912 -0.00207558  0
-0.0626184 -0.0027119  0
-0.0561001 -0.0032986  0
-0.0484667 -0.00382535  0
-0.0398542 -0.00427626  0
-0.0304342 -0.0046316  0
-0.020417 -0.00487224  0
-0.0100442 -0.00498592  0
0.000428642 -0.00497178  0
0.0107586 -0.00484227  0
0.0207366 -0.00461918  0
0.0301982 -0.00432557  0
0.0390206 -0.00398003  0
0.0471111 -0.00359341  0
0.05439 -0.00316857  0
0.0607751 -0.00269997  0
0.0661659 -0.00217444  0
0.0704258 -0.00156948  0
0.0733622 -0.000851557  0
0.074705 2.37287e-05  0
0.0740897 0.00110607  0
0.0710633 0.00243428  0
0.0651369 0.00400573  0
0.0559054 0.00573894  0
0.0432309 0.00744853  0
0.027436 0.00885904  0
0.00941665 0.00967297  0
-0.00604714 0.0186336  0
-0.0180256 0.0181826  0
-0.0295826 0.0172828  0
-0.040379 0.0159506  0
-0.0501297 0.0142284  0
-0.0585892 0.0121853  0
-0.0655685 0.00990895  0
-0.0709436 0.00749239  0
-0.0746539 0.00502156  0
-0.0766935 0.00256702  0
-0.0770981 0.000180089  0
-0.0759306 -0.00210682  0
-0.0732679 -0.00427704  0
-0.0691926 -0.00632314  0
-0.0637891 -0.00823839  0
-0.0571467 -0.0100077  0
-0.0493694 -0.0116  0
-0.0405885 -0.0129664  0
-0.0309753 -0.0140445  0
-0.0207465 -0.0147737  0
-0.0101568 -0.0151143  0
0.000523183 -0.0150628  0
0.0110364 -0.01466  0
0.021167 -0.0139753  0
0.0307523 -0.0130813  0
0.0396763 -0.0120356  0
0.0478542 -0.010871  0
0.055213 -0.00959388  0
0.0616737 -0.008186  0
0.0671337 -0.00660514  0
0.0714502 -0.0047817  0
0.0744207 -0.00261346  0
0.0757622 3.35389e-05  0
0.0750982 0.00330704  0
0.0719697 0.00731916  0
0.0658922 0.0120553  0
0.0564783 0.0172647  0
0.0436157 0.0223895  0
0.02765 0.0266081  0
0.0094842 0.0290386  0
-0.0063729 0.031536  0
-0.0189957 0.0307748  0
-0.0311714 0.0292458  0
-0.0425323 0.0269681  0
-0.0527599 0.0240132  0
-0.0615817 0.0205065  0
-0.0687966 0.0166074  0
-0.0742839 0.0124827  0
-0.0779993 0.00828428  0
-0.0799607 0.00413346  0
-0.0802285 0.00011506  0
-0.0788871 -0.0037211  0
-0.0760285 -0.00735359  0
-0.071742 -0.0107772  0
-0.0661108 -0.0139873  0
-0.0592161 -0.0169634  0
-0.0511502 -0.0196547  0
-0.0420351 -0.0219744  0
-0.0320416 -0.0238093  0
-0.0213986 -0.0250468  0
-0.0103848 -0.0256109  0
0.000698411 -0.025495  0
0.0115677 -0.024776  0
0.021996 -0.0235842  0
0.0318246 -0.0220523  0
0.0409517 -0.0202816  0
0.0493084 -0.0183258  0
0.0568337 -0.0161898  0
0.0634526 -0.0138362  0
0.0690577 -0.0111871  0
0.0734931 -0.00811906  0
0.0765354 -0.0044565  0
0.0778768 2.56981e-05  0
0.0771183 0.00556898  0
0.0737897 0.0123459  0
0.0674166 0.0203104  0
0.0576457 0.0290254  0
0.0444121 0.0375559  0
0.0281013 0.0445492  0
0.00962865 0.0485669  0
-0.00690087 0.0452866  0
-0.0205679 0.0441999  0
-0.0337437 0.0419908  0
-0.0460078 0.0386672  0
-0.0569817 0.0343352  0
-0.0663501 0.0291953  0
-0.073897 0.0235017  0
-0.0795147 0.0175156  0
-0.0831918 0.011467  0
-0.0849875 0.00553169  0
-0.0850031 -0.000175033  0
-0.0833574 -0.00559269  0
-0.080167 -0.0107049  0
-0.075533 -0.0155195  0
-0.0695372 -0.0200446  0
-0.0622493 -0.0242608  0
-0.0537459 -0.0280983  0
-0.0441365 -0.0314264  0
-0.0335911 -0.0340673  0
-0.0223548 -0.0358392  0
-0.0107392 -0.0366186  0
0.000913338 -0.0363935  0
0.0122861 -0.0352902  0
0.0231398 -0.0335226  0
0.0333253 -0.0312987  0
0.0427613 -0.0287691  0
0.0514003 -0.026005  0
0.0591946 -0.0230016  0
0.0660708 -0.019691  0
0.0719102 -0.0159487  0
0.0765336 -0.0115885  0
0.0796861 -0.00635447  0
0.0810241 7.12897e-05  0
0.0801168 0.00801577  0
0.0764807 0.0176902  0
0.0696606 0.0289854  0
0.0593566 0.0412511  0
0.045575 0.0531712  0
0.0287586 0.0628869  0
0.00983884 0.0684473  0
-0.00770422 0.0603618  0
-0.0229578 0.0589223  0
-0.0376386 0.0559389  0
-0.0512298 0.0513887  0
-0.0632571 0.04543  0
-0.0733488 0.0383766  0
-0.081282 0.0306174  0
-0.0869845 0.022538  0
-0.0905054 0.0144612  0
-0.0919715 0.00661872  0
-0.0915478 -0.000850031  0
-0.089404 -0.00788635  0
-0.0856899 -0.0144941  0
-0.0805223 -0.0207097  0
-0.0739838 -0.0265662  0
-0.0661339 -0.0320541  0
-0.0570333 -0.0370856  0
-0.0467797 -0.0414783  0
-0.035543 -0.0449737  0
-0.0235858 -0.0473023  0
-0.0112527 -0.0482799  0
0.00107504 -0.0478882  0
0.0130514 -0.0463205  0
0.0244318 -0.0439022  0
0.0350841 -0.0409327  0
0.0449517 -0.0376148  0
0.0540068 -0.0340296  0
0.062208 -0.030149  0
0.0694714 -0.02586  0
0.0756533 -0.0209783  0
0.0805387 -0.0152454  0
0.0838295 -0.00831888  0
0.0851376 0.000211207  0
0.0839976 0.0107443  0
0.0799175 0.0234986  0
0.0724784 0.0382568  0
0.0614619 0.0541205  0
0.0469741 0.0693914  0
0.0295328 0.0817444  0
0.0100831 0.0887794  0
-0.00893551 0.077464  0
-0.0266078 0.0756128  0
-0.043535 0.0716652  0
-0.0590227 0.0655508  0
-0.0724539 0.0575368  0
-0.0834049 0.0481238  0
-0.091684 0.0378946  0
-0.0973028 0.0273952  0
-0.10042 0.0170556  0
-0.101272 0.00715694  0
-0.100113 -0.0021554  0
-0.0971766 -0.010845  0
-0.0926534 -0.0189562  0
-0.0866812 -0.0265702  0
-0.0793493 -0.0337585  0
-0.070714 -0.040529  0
-0.0608303 -0.0467767  0
-0.0497933 -0.0522596  0
-0.0377778 -0.0566262  0
-0.0250588 -0.0595073  0
-0.0119962 -0.0606517  0
0.0010157 -0.0600374  0
0.0136267 -0.05794  0
0.0256057 -0.0548234  0
0.0368466 -0.051086  0
0.047313 -0.046977  0
0.0569807 -0.0425718  0
0.0657906 -0.0378  0
0.0736228 -0.0324868  0
0.0802839 -0.0263772  0
0.0855031 -0.0191342  0
0.088928 -0.0103293  0
0.0901247 0.00053273  0
0.0886004 0.0139025  0
0.0838753 0.0299605  0
0.0756014 0.0483227  0
0.0636851 0.0678018  0
0.0483689 0.0863283  0
0.0302603 0.101171  0
0.0103034 0.109573  0
-0.0108955 0.0977489  0
-0.0323802 0.0953404  0
-0.0527249 0.0900128  0
-0.0708999 0.0816703  0
-0.0861016 0.0708554  0
-0.097929 0.0583898  0
-0.106326 0.0451113  0
-0.11148 0.0317602  0
-0.113744 0.0188801  0
-0.113518 0.00676776  0
-0.111171 -0.00446149  0
-0.107008 -0.0148272  0
-0.101259 -0.0244348  0
-0.0940852 -0.0334254  0
-0.0855928 -0.0419154  0
-0.0758559 -0.0499318  0
-0.0649506 -0.0573503  0
-0.0529939 -0.0638669  0
-0.0401749 -0.0690402  0
-0.0267639 -0.0724103  0
-0.0130901 -0.073672  0
0.000501287 -0.0728073  0
0.0137087 -0.0701753  0
0.0263476 -0.0663929  0
0.0383462 -0.0619429  0
0.0496687 -0.057096  0
0.0602557 -0.0518947  0
0.0699847 -0.0462036  0
0.0786512 -0.0397698  0
0.0859698 -0.0322621  0
0.0915844 -0.023272  0
0.0950789 -0.0123004  0
0.0959824 0.00121365  0
0.0938011 0.0177367  0
0.0881104 0.037351  0
0.0786954 0.0594296  0
0.065659 0.0824556  0
0.0494277 0.10403  0
0.0307093 0.121105  0
0.0104167 0.130697  0
-0.0141376 0.123226  0
-0.0418441 0.119897  0
-0.0675095 0.112264  0
-0.0894695 0.100353  0
-0.106729 0.085433  0
-0.11916 0.0688717  0
-0.127096 0.0517639  0
-0.131069 0.0350385  0
-0.131738 0.019338  0
-0.12974 0.0048906  0
-0.125572 -0.00829427  0
-0.119586 -0.0203374  0
-0.112032 -0.0314208  0
-0.103094 -0.0417447  0
-0.0929138 -0.0514619  0
-0.0816224 -0.0606066  0
-0.0693645 -0.0690316  0
-0.0563208 -0.0763787  0
-0.0427079 -0.0821528  0
-0.0287551 -0.0858541  0
-0.0146785 -0.0871712  0
-0.000677904 -0.0860926  0
0.0130703 -0.083038  0
0.0264751 -0.0787664  0
0.0395071 -0.0737927  0
0.0520975 -0.0683518  0
0.0640875 -0.0624089  0
0.0752156 -0.0557398  0
0.0851209 -0.0479991  0
0.0933568 -0.0387815  0
0.0994294 -0.0276346  0
0.102844 -0.0140418  0
0.10312 0.00257947  0
0.0998195 0.0226557  0
0.0926468 0.0460981  0
0.0816138 0.0719325  0
0.067134 0.0982706  0
0.0498779 0.122504  0
0.0306642 0.141364  0
0.0103407 0.151855  0
-0.0195652 0.157363  0
-0.0575236 0.152255  0
-0.0915282 0.140368  0
-0.118769 0.122243  0
-0.138106 0.100934  0
-0.150286 0.0787778  0
-0.156604 0.0569086  0
-0.158204 0.0362644  0
-0.156183 0.0175586  0
-0.151491 0.000780182  0
-0.144709 -0.0143338  0
-0.136155 -0.0280376  0
-0.126055 -0.0405726  0
-0.114607 -0.0521778  0
-0.102016 -0.0629992  0
-0.0885296 -0.0730453  0
-0.0744307 -0.0821482  0
-0.0600181 -0.0899169  0
-0.0455488 -0.0958954  0
-0.0311557 -0.0996559  0
-0.0168184 -0.100982  0
-0.00248419 -0.0998154  0
0.0118577 -0.0966037  0
0.0262689 -0.0922153  0
0.0407945 -0.0870999  0
0.0552975 -0.0813365  0
0.0694317 -0.0747471  0
0.0827057 -0.0670028  0
0.0945038 -0.0576389  0
0.1041 -0.0461737  0
0.11075 -0.0321656  0
0.113851 -0.0152271  0
0.112984 0.00515381  0
0.107874 0.0292884  0
0.0984382 0.0568704  0
0.0850179 0.0864091  0
0.0685267 0.11556  0
0.0499285 0.141863  0
0.0301665 0.161774  0
0.010068 0.172661  0
-0.0283407 0.205692  0
-0.0824956 0.196855  0
-0.129067 0.17713  0
-0.163627 0.148069  0
-0.184749 0.116357  0
-0.194896 0.0864724  0
-0.197635 0.0590622  0
-0.195262 0.0341304  0
-0.189264 0.0124676  0
-0.180869 -0.00642098  0
-0.170611 -0.0233775  0
-0.158628 -0.0387355  0
-0.14508 -0.052727  0
-0.130171 -0.0655843  0
-0.114205 -0.0773543  0
-0.0976345 -0.087951  0
-0.080948 -0.0972321  0
-0.0646219 -0.104776  0
-0.0489788 -0.110353  0
-0.0339919 -0.113783  0
-0.0192369 -0.115152  0
-0.00432026 -0.114101  0
0.0109156 -0.111101  0
0.0267663 -0.107185  0
0.0434861 -0.10258  0
0.0608726 -0.0969503  0
0.0782692 -0.0898685  0
0.0948458 -0.0809365  0
0.109633 -0.0694958  0
0.121444 -0.0549289  0
0.129037 -0.0368602  0
0.131628 -0.0154318  0
0.129003 0.00964262  0
0.121225 0.0384787  0
0.108464 0.0706668  0
0.0914191 0.103867  0
0.0719035 0.134898  0
0.0510814 0.162733  0
0.0299653 0.182569  0
0.00979721 0.192919  0
-0.0411543 0.275599  0
-0.117625 0.258375  0
-0.180542 0.225878  0
-0.225589 0.17971  0
-0.248915 0.129949  0
-0.254052 0.0889496  0
-0.250685 0.0567429  0
-0.243479 0.0276592  0
-0.232928 0.00317829  0
-0.220164 -0.0175009  0
-0.205579 -0.0363501  0
-0.189084 -0.0534495  0
-0.170909 -0.0689457  0
-0.151295 -0.0830977  0
-0.130655 -0.0956567  0
-0.109794 -0.10629  0
-0.0894238 -0.115159  0
-0.0702245 -0.121584  0
-0.0526988 -0.125924  0
-0.0366594 -0.128448  0
-0.0209997 -0.130111  0
-0.00491549 -0.129353  0
0.0116489 -0.126859  0
0.0293866 -0.124225  0
0.0491849 -0.121268  0
0.0708713 -0.116545  0
0.0931846 -0.109194  0
0.114815 -0.0990286  0
0.13442 -0.0850069  0
0.150138 -0.0661569  0
0.159725 -0.0420245  0
0.162077 -0.0144239  0
0.157338 0.0167852  0
0.146046 0.051191  0
0.128635 0.0889097  0
0.106024 0.126063  0
0.0820938 0.156929  0
0.057252 0.187147  0
0.0320247 0.205279  0
0.0100376 0.213144  0
-0.0550393 0.372192  0
-0.1512 0.335199  0
-0.22777 0.289315  0
-0.291679 0.226005  0
-0.32228 0.13836  0
-0.317262 0.0814383  0
-0.307626 0.0520318  0
-0.300065 0.0183874  0
-0.287009 -0.0103731  0
-0.270049 -0.0328888  0
-0.250197 -0.0546131  0
-0.227398 -0.0736945  0
-0.202848 -0.0906394  0
-0.176832 -0.106248  0
-0.149763 -0.11943  0
-0.123254 -0.129102  0
-0.0979912 -0.137196  0
-0.0746386 -0.141316  0
-0.0543619 -0.143211  0
-0.0370975 -0.143682  0
-0.0204266 -0.146424  0
-0.0029523 -0.145814  0
0.0147364 -0.143867  0
0.034054 -0.143488  0
0.0575267 -0.144492  0
0.0853852 -0.142082  0
0.114919 -0.134719  0
0.144042 -0.123472  0
0.171236 -0.106579  0
0.193954 -0.0822363  0
0.207894 -0.04869  0
0.211588 -0.0130233  0
0.205378 0.027115  0
0.189587 0.0687221  0
0.165172 0.113982  0
0.134193 0.155357  0
0.106718 0.179816  0
0.0763043 0.220291  0
0.0399733 0.234467  0
0.0115606 0.235127  0
-0.0448851 0.472313  0
-0.124796 0.411539  0
-0.208759 0.373894  0
-0.32093 0.318087  0
-0.369125 0.125851  0
-0.342842 0.0634216  0
-0.344807 0.0631531  0
-0.356199 0.0118757  0
-0.344686 -0.02765  0
-0.324418 -0.0520598  0
-0.298013 -0.080918  0
-0.265589 -0.101831  0
-0.232426 -0.119433  0
-0.198226 -0.13689  0
-0.162833 -0.150469  0
-0.130574 -0.156053  0
-0.100619 -0.164685  0
-0.0720451 -0.164975  0
-0.0486059 -0.16249  0
-0.0316644 -0.15783  0
-0.0158157 -0.164017  0
0.00156875 -0.162302  0
0.0183488 -0.16107  0
0.0367033 -0.163179  0
0.0626356 -0.173427  0
0.0982973 -0.175888  0
0.137399 -0.168768  0
0.1765 -0.156867  0
0.214444 -0.137542  0
0.248772 -0.10754  0
0.270395 -0.058172  0
0.278836 -0.0148998  0
0.274158 0.0406553  0
0.251296 0.0946068  0
0.209247 0.155332  0
0.162922 0.192079  0
0.145296 0.188965  0
0.11972 0.267901  0
0.0633874 0.280288  0
0.0174005 0.264279  0
-0.00956857 0.258599  0
-0.0776125 0.223282  0
-0.172549 0.402173  0
-0.209009 0.381515  0
-0.211791 0.113788  0
-0.244694 0.08249  0
-0.340317 0.142059  0
-0.398142 0.00276892  0
-0.379192 -0.0482285  0
-0.36045 -0.0697155  0
-0.328754 -0.120586  0
-0.282335 -0.140228  0
-0.240112 -0.155643  0
-0.198222 -0.175993  0
-0.153685 -0.190521  0
-0.121022 -0.18015  0
-0.0918126 -0.19898  0
-0.0570093 -0.193285  0
-0.0305056 -0.18335  0
-0.0178343 -0.16581  0
-0.00730045 -0.181647  0
0.00701369 -0.175598  0
0.0199366 -0.176704  0
0.0316165 -0.176807  0
0.0545783 -0.207921  0
0.0971187 -0.218823  0
0.145626 -0.212667  0
0.194603 -0.20027  0
0.243643 -0.180346  0
0.293599 -0.148245  0
0.322304 -0.0670235  0
0.338152 -0.0295654  0
0.342464 0.056458  0
0.314483 0.130415  0
0.215887 0.260744  0
0.111081 0.238181  0
0.0778808 0.194074  0
0.0688656 0.297766  0
0.0669384 0.309065  0
0.0334692 0.295372  0
0 0  0
0 0  0
-0.104505 0.190757  0
-0.0765372 0.190757  0
-0.0773396 0.0582851  0
-0.29019 0.0563054  0
-0.343502 0.101424  0
-0.317239 -0.00471376  0
-0.32266 -0.0538869  0
-0.338229 -0.0668428  0
-0.313586 -0.179215  0
-0.253329 -0.187498  0
-0.208279 -0.194872  0
-0.166198 -0.219962  0
-0.114168 -0.242348  0
-0.0931862 -0.181392  0
-0.0787308 -0.241018  0
-0.0386625 -0.225733  0
-0.0120831 -0.2036  0
-0.00200692 -0.167923  0
0.00231344 -0.194004  0
0.011616 -0.186473  0
0.0219713 -0.188722  0
0.0258099 -0.179922  0
0.0411245 -0.242697  0
0.0798149 -0.264892  0
0.129569 -0.264279  0
0.181349 -0.248639  0
0.231608 -0.230503  0
0.2925 -0.208165  0
0.310824 -0.0535563  0
0.327587 -0.0750653  0
0.334963 0.0908486  0
0.308842 0.150509  0
0.26059 0.244973  0
0.180219 0.132147  0
0.0601811 0.100581  0
0.0149137 0.149847  0
0.0622522 0.154533  0
0.0334692 0.154533  0
0 0  0
0 0  0
0 0  0
0 0  0
0 0  0
0 0  0
-0.15862 -0.00235688  0
-0.295363 -0.00235688  0
-0.29667 -0.0242332  0
-0.261562 -0.135253  0
-0.203272 -0.213812  0
-0.185962 -0.23008  0
-0.155102 -0.227813  0
-0.132564 -0.251252  0
-0.123577 -0.27169  0
-0.0670645 -0.222265  0
-0.0437537 -0.132013  0
-0.0641159 -0.121397  0
-0.0492398 -0.106559  0
-0.00968295 -0.0842403  0
0.0140796 -0.0988834  0
0.00950144 -0.0960064  0
0.0154376 -0.0967688  0
0.0585351 -0.0894727  0
0.0952974 -0.129494  0
0.111234 -0.289366  0
0.136749 -0.29144  0
0.150571 -0.286692  0
0.174736 -0.266488  0
0.185079 -0.24303  0
0.201665 -0.0725956  0
0.218252 -0.108368  0
0.246777 0.00430061  0
0.292072 0.0752544  0
0.154421 0.0752544  0
0 0  0
0 0  0
0 0  0
0 0  0
0 0  0
0 0  0
0 0  0
0 0  0
0 0  0
0 0  0
0 0  0
0 0  0
0 0  0
0 0  0
-0.101636 -0.106906  0
-0.186483 -0.106906  0
-0.172186 -0.123695  0
-0.148677 -0.120682  0
-0.117401 -0.13012  0
-0.117852 -0.135845  0
-0.0617883 -0.135845  0
0 0  0
0 0  0
0 0  0
0 0  0
0 0  0
0 0  0
0 0  0
0 0  0
0 0  0
0.0683744 -0.14572  0
0.141286 -0.14572  0
0.143266 -0.150257  0
0.145994 -0.138415  0
0.168179 -0.121515  0
0.201665 -0.0541839  0
0.218252 -0.0541839  0
0.109126 -0.0541839  0
0 0  0
0 0  0
0 0  0
0 0  0
0 0  0
0 0  0
0 0  0
0 0  0
0 0  0
0 0  0
0 0  0
0 0  0
0 0  0
0 0  0
0 0  0
0 0  0
0 0  0
0 0  0
0 0  0
0 0  0
0 0  0
0 0  0
0 0  0
0 0  0
0 0  0
0 0  0
0 0  0
0 0  0
0 0  0
0 0  0
0 0  0
0 0  0
0 0  0
0 0  0
0 0  0
0 0  0
0 0  0
0 0  0
0 0  0
0 0  0
0 0  0
0 0  0
0 0  0
0 0  0
0 0  0
0 0  0
0 0  0
0 0  0
0 0  0
0 0  0
0 0  0
0 0  0
0 0  0
0 0  0
0 0  0
0 0  0
0 0  0
0 0  0
0 0  0
0 0  0
0 0  0
0 0  0
0 0  0
0 0  0
0 0  0
0 0  0
0 0  0
0 0  0
0 0  0
0 0  0
0 0  0
0 0  0
0 0  0
0 0  0
0 0  0
0 0  0
0 0  0
0 0  0
0 0  0
0 0  0
0 0  0
0 0  0
0 0  0
0 0  0
0 0  0
0 0  0
0 0  0
0 0  0
0 0  0
0 0  0
0 0  0
0 0  0
0 0  0
0 0  0
0 0  0
0 0  0
0 0  0
0 0  0
0 0  0
0 0  0
0 0  0
0 0  0
0 0  0
0 0  0
0 0  0
0 0  0
0 0  0
0 0  0
0 0  0
0 0  0
0 0  0
0 0  0
0 0  0
0 0  0
0 0  0
0 0  0
0 0  0
0 0  0
0 0  0
0 0  0
0 0  0
0 0  0
0 0  0
0 0  0
0 0  0
0 0  0
0 0  0
0 0  0
0 0  0
0 0  0
0 0  0
0 0  0
0 0  0
0 0  0
0 0  0
0 0  0
0 0  0
0 0  0
0 0  0
0 0  0
0 0  0
0 0  0
0 0  0
0 0  0
0 0  0
0 0  0
0 0  0
0 0  0
0 0  0
0 0  0
0 0  0
0 0  0
0 0  0
0 0  0
0 0  0
0 0  0
0 0  0
0 0  0
0 0  0
0 0  0
0 0  0
0 0  0
0 0  0
0 0  0
0 0  0
0 0  0
0 0  0
0 0  0
0 0  0
0 0  0
0 0  0
0 0  0
0 0  0
0 0  0
0 0  0
0 0  0
0 0  0
0 0  0
0 0  0
0 0  0
0 0  0
0 0  0
0 0  0
0 0  0
0 0  0
0 0  0
0 0  0
0 0  0
0 0  0
0 0  0
0 0  0
0 0  0
0 0  0
0 0  0
0 0  0
0 0  0
0 0  0
0 0  0
0 0  0
0 0  0
0 0  0
0 0  0
0 0  0
0 0  0
0 0  0
0 0  0
0 0  0
0 0  0
0 0  0
0 0  0
0 0  0
0 0  0
0 0  0
0 0  0
0 0  0
0 0  0
0 0  0
0 0  0
0 0  0
0 0  0
0 0  0
0 0  0
0 0  0
0 0  0
0 0  0
0 0  0
0 0  0
0 0  0
0 0  0
0 0  0
0 0  0
0 0  0
0 0  0
0 0  0
0 0  0
0 0  0
0 0  0
0 0  0
0 0  0
0 0  0
0 0  0
0 0  0
0 0  0
0 0  0
0 0  0
0 0  0
0 0  0
0 0  0
0 0  0
0 0  0
0 0  0
0 0  0
0 0  0
0 0  0
0 0  0
0 0  0
0 0  0
0 0  0
0 0  0
0 0  0
0 0  0
0 0  0
0 0  0
0 0  0
0 0  0
0 0  0
0 0  0
0 0  0
0 0  0
0 0  0
0 0  0
0 0  0
0 0  0
0 0  0
0 0  0
0 0  0
0 0  0
0 0  0
0 0  0
0 0  0
0 0  0
0 0  0
0 0  0
0 0  0
0 0  0
0 0  0
0 0  0
0 0  0
0 0  0
0 0  0
0 0  0
0 0  0
0 0  0
0 0  0
0 0  0
0 0  0
0 0  0
0 0  0
0 0  0
0 0  0
0 0  0
0 0  0
0 0  0
0 0  0
0 0  0
0 0  0
0 0  0
0 0  0
0 0  0
0 0  0
0 0  0
0 0  0
0 0  0
0 0  0
0 0  0
0 0  0
0 0  0
0 0  0
0 0  0
0 0  0
0 0  0
0 0  0
0 0  0
0 0  0
0 0  0
0 0  0
0 0  0
0 0  0
0 0  0
0 0  0
0 0  0
0 0  0
0 0  0
0 0  0
0 0  0
0 0  0
0 0  0
0 0  0
0 0  0
0 0  0
0 0  0
0 0  0
0 0  0
0 0  0
0 0  0
0 0  0
0 0  0
0 0  0
0 0  0
0 0  0
0 0  0
0 0  0
0 0  0
0 0  0
0 0  0
0 0  0
0 0  0
0 0  0
0 0  0
0 0  0
0 0  0
0 0  0
0 0  0
0 0  0
0 0  0
0 0  0
0 0  0
0 0  0
0 0  0
0 0  0
0 0  0
0 0  0
0 0  0
0 0  0
0 0  0
0 0  0
0 0  0
0 0  0
0 0  0
0 0  0
0 0  0
0 0  0
0 0  0
0 0  0
0 0  0
0 0  0
0 0  0
0 0  0
0 0  0
0 0  0
0 0  0
0 0  0
0 0  0
0 0  0
0 0  0
0 0  0
0 0  0
0 0  0
0 0  0
0 0  0
0 0  0
0 0  0
0 0  0
0 0  0
0 0  0
0 0  0
0 0  0
0 0  0
0 0  0
0 0  0
0 0  0
0 0  0
0 0  0
0 0  0
0 0  0
0 0  0
0 0  0
0 0  0
0 0  0
0 0  0
0 0  0
0 0  0
0 0  0
0 0  0
0 0  0
0 0  0
0 0  0
0 0  0
0 0  0
0 0  0
0 0  0
0 0  0
0 0  0
0 0  0
0 0  0
0 0  0
0 0  0
0 0  0
0 0  0
0 0  0
0 0  0
0 0  0
0 0  0
0 0  0
0 0  0
0 0  0
0 0  0
0 0  0
0 0  0
0 0  0
0 0  0
0 0  0
0 0  0
0 0  0
0 0  0
0 0  0
0 0  0
0 0  0
0 0  0
0 0  0
0 0  0
0 0  0
0 0  0
0 0  0
0 0  0
0 0  0
0 0  0
0 0  0
0 0  0
0 0  0
0 0  0
0 0  0
0 0  0
0 0  0
0 0  0
0 0  0
0 0  0
0 0  0
0 0  0
0 0  0
0 0  0
0 0  0
0 0  0
0 0  0
0 0  0
0 0  0
0 0  0
0 0  0
0 0  0
0 0  0
0 0  0
0 0  0
0 0  0
0 0  0
0 0  0
0 0  0
0 0  0
0 0  0
0 0  0
0 0  0
0 0  0
0 0  0
0 0  0
0 0  0
0 0  0
0 0  0
0 0  0
0 0  0
0 0  0
0 0  0
0 0  0
0 0  0
0 0  0
0 0  0
0 0  0
0 0  0
0 0  0
0 0  0
0 0  0
0 0  0
0 0  0
0 0  0
0 0  0
0 0  0
0 0  0
0 0  0
0 0  0

SCALARS pressure double 1
LOOKUP_TABLE default
2.62052
2.6213
2.62289
2.62546
2.62906
2.63353
2.63859
2.64396
2.64945
2.65495
2.66033
2.6655
2.67033
2.67473
2.67861
2.68194
2.68469
2.68685
2.68844
2.68944
2.68987
2.68974
2.68909
2.68787
2.68608
2.68373
2.68082
2.67737
2.67343
2.66907
2.66439
2.65951
2.65462
2.64989
2.64554
2.64173
2.63863
2.63634
2.63487
2.6342
2.41977
2.4204
2.42246
2.42561
2.42948
2.43392
2.43891
2.44438
2.45015
2.45598
2.46163
2.46695
2.47184
2.47624
2.48011
2.48343
2.48616
2.48832
2.48989
2.49088
2.4913
2.49116
2.49051
2.48931
2.48754
2.4852
2.48229
2.47883
2.47485
2.47041
2.46562
2.4606
2.45552
2.45058
2.44599
2.44196
2.43865
2.43619
2.4346
2.43387
2.21874
2.21989
2.22205
2.22515
2.2293
2.23436
2.24004
2.24605
2.25219
2.2583
2.26423
2.26981
2.27491
2.27943
2.28334
2.28662
2.28929
2.29136
2.29286
2.29381
2.29421
2.29407
2.29345
2.29228
2.29055
2.28825
2.28536
2.28187
2.27781
2.27322
2.26819
2.26286
2.2574
2.25203
2.24697
2.24248
2.23874
2.2359
2.23403
2.23315
2.01736
2.01835
2.02093
2.02485
2.02973
2.03538
2.04166
2.04838
2.05524
2.06199
2.0684
2.07431
2.07961
2.08425
2.08818
2.09143
2.094
2.09596
2.09735
2.09822
2.09856
2.09842
2.09784
2.09675
2.09512
2.0929
2.09005
2.08654
2.08237
2.07754
2.07216
2.06636
2.0603
2.05425
2.04847
2.04323
2.03877
2.03532
2.03299
2.03187
1.81499
1.81645
1.81948
1.82401
1.82986
1.83667
1.84406
1.85174
1.85947
1.86701
1.87409
1.8805
1.88611
1.89086
1.89476
1.89788
1.90028
1.90206
1.90329
1.90402
1.9043
1.90417
1.90367
1.90271
1.90123
1.89916
1.89641
1.89291
1.8886
1.88348
1.87764
1.87117
1.86429
1.85728
1.85045
1.84412
1.83863
1.83425
1.83124
1.82974
1.61149
1.61326
1.6172
1.62289
1.62996
1.63808
1.6469
1.656
1.665
1.67358
1.68148
1.68848
1.69444
1.69931
1.70314
1.70602
1.70813
1.70961
1.71057
1.71112
1.71133
1.71122
1.71085
1.71009
1.70886
1.70706
1.70451
1.70107
1.69666
1.69121
1.68476
1.67743
1.66947
1.66117
1.6529
1.64508
1.63812
1.63244
1.6284
1.62635
1.40629
1.40862
1.41355
1.42077
1.42968
1.43969
1.45032
1.46117
1.47179
1.48179
1.49079
1.49851
1.50484
1.50975
1.51336
1.51587
1.5175
1.51851
1.5191
1.5194
1.5195
1.51944
1.51925
1.51882
1.51801
1.51663
1.51442
1.5112
1.50674
1.50092
1.49375
1.48538
1.476
1.46601
1.45584
1.44601
1.43704
1.42951
1.424
1.4211
1.19847
1.20155
1.20801
1.21732
1.22861
1.2411
1.25418
1.26731
1.28002
1.29179
1.30217
1.3108
1.31754
1.32239
1.32557
1.32741
1.32831
1.32866
1.32872
1.32868
1.32865
1.32865
1.32874
1.32878
1.32858
1.32786
1.32629
1.32348
1.31909
1.31292
1.30494
1.29526
1.28412
1.27195
1.25931
1.24683
1.23518
1.22508
1.21738
1.21314
0.986727
0.990641
0.999224
1.01175
1.02637
1.04204
1.0582
1.07434
1.08976
1.10384
1.11594
1.12568
1.13284
1.13747
1.13988
1.14065
1.14044
1.13983
1.13918
1.13872
1.13853
1.13863
1.13911
1.13979
1.14046
1.14078
1.14021
1.13815
1.13404
1.12758
1.11868
1.10744
1.0941
1.07917
1.06335
1.04748
1.03234
1.01871
1.00767
1.00114
0.76863
0.773334
0.784903
0.802748
0.822215
0.841965
0.862
0.882025
0.901019
0.918093
0.932447
0.943587
0.951175
0.955272
0.956384
0.955455
0.953621
0.951709
0.950178
0.949211
0.948856
0.949108
0.950031
0.95153
0.953399
0.955233
0.956274
0.955487
0.951982
0.945291
0.935339
0.922294
0.906257
0.887828
0.867906
0.847831
0.828428
0.810134
0.793826
0.782871
0.539786
0.544482
0.560178
0.58877
0.615303
0.639922
0.664685
0.690029
0.713811
0.734623
0.75203
0.765048
0.773098
0.776232
0.775184
0.771523
0.767337
0.763785
0.761266
0.759797
0.759303
0.759688
0.761081
0.763495
0.76688
0.770877
0.774476
0.775785
0.773295
0.766364
0.755114
0.740038
0.72083
0.697858
0.672413
0.647349
0.623395
0.599643
0.574885
0.553941
0.292906
0.295117
0.314417
0.369633
0.405387
0.434698
0.464659
0.497995
0.528039
0.553526
0.575163
0.590822
0.59944
0.601013
0.596404
0.588121
0.580613
0.575237
0.571881
0.570082
0.569511
0.569968
0.571719
0.57494
0.579934
0.586852
0.594706
0.599439
0.598378
0.590794
0.577515
0.560586
0.537878
0.508849
0.474902
0.44435
0.417289
0.389281
0.351945
0.304309
0.0223419
0.0171555
0.0226959
0.155663
0.194628
0.225827
0.258907
0.306804
0.344304
0.374432
0.402484
0.422188
0.431627
0.43094
0.420534
0.403583
0.391568
0.384829
0.381395
0.379804
0.379244
0.379642
0.381428
0.384955
0.390802
0.401054
0.416893
0.427382
0.427958
0.418126
0.40035
0.383576
0.357641
0.320833
0.269967
0.235008
0.210156
0.184681
0.137604
0.00698202
0
0
0
0.0354406
0.000719303
0.0147473
0.0330027
0.122767
0.165747
0.19526
0.235241
0.261722
0.272279
0.268942
0.249789
0.213663
0.196428
0.190803
0.18926
0.189245
0.188597
0.188694
0.189986
0.193013
0.196262
0.207627
0.24207
0.262535
0.264532
0.248378
0.217392
0.210613
0.181706
0.139469
0.0392378
0.0124956
0.00334084
0.000766055
0.00265444
0
0
0
0
0
0
0
0
-0.0107752
0.00280584
0.00504345
0.0776633
0.114838
0.125476
0.121014
0.0930162
0.00411924
-0.0123373
-0.0085623
-0.00483392
0.000118615
-0.00202553
-0.00275911
-0.00253292
0.0011093
-0.00843899
-0.0124325
0.0777438
0.112882
0.115609
0.0878515
0.00752061
0.0559779
0.0134583
0.0070638
0
0
0
0
0
0
0
0
0
0
0
0
0
0
0
0
-0.0379977
-0.00849922
-0.00669636
-0.00452746
-0.00340429
0
0
0
0
0
0
0
0
0
0
0
-0.034828
-0.00678942
-0.00509716
-0.0104091
0
0
0
0
0
0
0
0
0
0
0
0
0
0
0
0
0
0
0
0
0
0
0
0
0
0
0
0
0
0
0
0
0
0
0
0
0
0
0
0
0
0
0
0
0
0
0
0
0
0
0
0
0
0
0
0
0
0
0
0
0
0
0
0
0
0
0
0
0
0
0
0
0
0
0
0
0
0
0
0
0
0
0
0
0
0
0
0
0
0
0
0
0
0
0
0
0
0
0
0
0
0
0
0
0
0
0
0
0
0
0
0
0
0
0
0
0
0
0
0
0
0
0
0
0
0
0
0
0
0
0
0
0
0
0
0
0
0
0
0
0
0
0
0
0
0
0
0
0
0
0
0
0
0
0
0
0
0
0
0
0
0
0
0
0
0
0
0
0
0
0
0
0
0
0
0
0
0
0
0
0
0
0
0
0
0
0
0
0
0
0
0
0
0
0
0
0
0
0
0
0
0
0
0
0
0
0
0
0
0
0
0
0
0
0
0
0
0
0
0
0
0
0
0
0
0
0
0
0
0
0
0
0
0
0
0
0
0
0
0
0
0
0
0
0
0
0
0
0
0
0
0
0
0
0
0
0
0
0
0
0
0
0
0
0
0
0
0
0
0
0
0
0
0
0
0
0
0
0
0
0
0
0
0
0
0
0
0
0
0
0
0
0
0
0
0
0
0
0
0
0
0
0
0
0
0
0
0
0
0
0
0
0
0
0
0
0
0
0
0
0
0
0
0
0
0
0
0
0
0
0
0
0
0
0
0
0
0
0
0
0
0
0
0
0
0
0
0
0
0
0
0
0
0
0
0
0
0
0
0
0
0
0
0
0
0
0
0
0
0
0
0
0
0
0
0
0
0
0
0
0
0
0
0
0
0
0
0
0
0
0
0
0
0
0
0
0
0
0
0
0
0
0
0
0
0
0
0
0
0
0
0
0
0
0
0
0
0
0
0
0
0
0
0
0
0
0
0
0
0
0
0
0
0
0
0
0
0
0
0
0
0
0
0
0
0
0
0
0
0
0
0
0
0
0
0
0
0
0
0
0
0
0
0
0
0
0
0
0
0
0
0
0
0
0
0
0
0
0
0
0
0
0
0
0
0
0
0
0
0
0
0
0
0
0
0
0
0
0
0
0
0
0
0
0
0
0
0
0
0
0
0
0
0
0
0
0
0
0
0
0
0
0
0
0
0
0
0
0
0
0
0
0
0
0
0
0
0
0
0
0
0
0
0
0
0
0
0
0
0
0
0
0
0
0
0
0
0
0
0
0
0
0
0
0
0
0
0
0
0
SCALARS rhs double 1
LOOKUP_TABLE default
-4.91213
-4.95338
-4.93712
-4.92088
-4.91788
-4.92521
-4.93277
-4.93404
-4.92942
-4.92298
-4.91822
-4.9163
-4.91646
-4.91734
-4.91795
-4.91799
-4.9176
-4.91708
-4.91664
-4.91635
-4.91604
-4.91449
-4.91542
-4.91494
-4.9144
-4.91379
-4.91313
-4.91248
-4.91189
-4.91139
-4.91102
-4.91086
-4.91099
-4.9115
-4.91282
-4.91493
-4.91787
-4.92156
-4.92535
-4.93025
0.0558188
0.0565032
0.0390529
0.0139298
0.0106106
0.0270238
0.0445088
0.0508691
0.0471296
0.0407002
0.0371998
0.0377025
0.040225
0.0423349
0.0428818
0.0420008
0.0403969
0.0387944
0.0376512
0.0371747
0.0373191
0.0388736
0.0378688
0.0383568
0.0390019
0.0397035
0.0403026
0.0407625
0.0411829
0.0415715
0.0417564
0.0418348
0.0419179
0.041269
0.0404616
0.0389004
0.0359907
0.0317929
0.0273156
0.0220837
0.0653628
0.00930737
0.0164959
0.0405747
0.0490655
0.0406129
0.0313408
0.0307212
0.0362294
0.0413723
0.0427157
0.0409519
0.0386711
0.0374529
0.0374608
0.0378313
0.03789
0.0374677
0.0368827
0.0362353
0.0356627
0.0367896
0.0358266
0.0366779
0.0375127
0.038045
0.0384672
0.0390006
0.0394629
0.0394861
0.0397153
0.0401769
0.0397126
0.0397052
0.0389082
0.0369329
0.0335374
0.0292762
0.0251708
0.0200152
0.0418342
0.039672
0.0347231
0.0201998
0.0206584
0.0321382
0.0401602
0.0400973
0.0367504
0.0353214
0.0361005
0.0379236
0.0389924
0.0387121
0.0373408
0.0359867
0.035121
0.0348902
0.0344924
0.0338423
0.0340794
0.0359857
0.0348497
0.0352327
0.0354566
0.0360242
0.0368526
0.0373652
0.0371447
0.0378639
0.0386117
0.0378015
0.0381149
0.0379322
0.0367704
0.0343345
0.031078
0.0270378
0.0229081
0.0177815
0.0466454
0.0148276
0.0242557
0.0343076
0.031858
0.026427
0.0272981
0.032628
0.0367836
0.0366517
0.035313
0.0345355
0.034755
0.0348845
0.03509
0.0346947
0.0341092
0.0326719
0.0314752
0.0317779
0.0321906
0.0338952
0.0326612
0.032955
0.0337723
0.0346271
0.0349532
0.0344624
0.0359345
0.0364115
0.0353983
0.0359268
0.0365423
0.0356143
0.0338589
0.031663
0.0282968
0.0242707
0.0204218
0.0153115
0.0356701
0.0244113
0.0164749
0.0161457
0.0239664
0.0293102
0.0291343
0.0283069
0.0286658
0.0323289
0.0336132
0.0337405
0.0325832
0.0322947
0.0318956
0.0319731
0.0309002
0.0302031
0.0303826
0.0295978
0.0297202
0.0318955
0.030078
0.0310924
0.0320571
0.032366
0.0317185
0.03382
0.0335191
0.0329668
0.0335464
0.0345177
0.0332739
0.0327033
0.0312816
0.0286713
0.0253855
0.0215116
0.0178607
0.0128511
0.0227944
0.0092773
0.0154957
0.0145732
0.013465
0.0170592
0.0227961
0.0248875
0.0273386
0.0270723
0.0271883
0.0286708
0.0300044
0.02961
0.0294467
0.0281685
0.0278903
0.0280572
0.0272965
0.0275663
0.0276837
0.0295594
0.0283031
0.0292421
0.0292944
0.0286197
0.030982
0.0300723
0.0303789
0.0304368
0.0316466
0.030302
0.0308369
0.0295916
0.0278554
0.0255162
0.0224182
0.0189384
0.0156466
0.0108134
0.00365878
-0.00753179
-0.00642565
0.000703707
0.00513816
0.00774595
0.0101841
0.0166983
0.0197214
0.0218914
0.0220706
0.0233744
0.0239282
0.0250781
0.0248658
0.0250146
0.0250646
0.0247813
0.0251396
0.0250807
0.0252484
0.0280728
0.0267092
0.0261187
0.0255253
0.0270789
0.0259621
0.02658
0.026102
0.027268
0.0265176
0.0264376
0.0261097
0.0252342
0.0234191
0.0213672
0.0190472
0.0163643
0.0138877
0.00958932
-0.0416198
-0.0410887
-0.0372884
-0.0300517
-0.0186744
-0.00998824
-0.00228541
0.0026679
0.00850756
0.00989621
0.0136857
0.0156866
0.0171102
0.0177484
0.0186268
0.0197412
0.0207471
0.021696
0.0224756
0.0230392
0.0232549
0.0261596
0.0237012
0.0226299
0.0223157
0.0211877
0.0208042
0.0198741
0.0201153
0.0197194
0.0188765
0.0178925
0.0185129
0.0167407
0.0150327
0.0138655
0.013337
0.0123871
0.0119044
0.00909308
-0.137314
-0.116331
-0.102202
-0.0824701
-0.0599369
-0.0398535
-0.0256273
-0.0150705
-0.00663426
-0.00788573
-5.08295e-06
0.00347678
0.00591587
0.00757594
0.0096973
0.0121312
0.014681
0.0175454
0.0196044
0.0207982
0.0213632
0.0226086
0.0208171
0.0181511
0.01602
0.0130835
0.0110809
0.00927367
0.00774972
0.00531789
0.00313395
-6.04979e-05
0.00275857
-0.00112164
-0.0034232
-0.00267079
0.00107674
0.00285864
0.00734841
0.00827839
-0.325692
-0.238725
-0.204033
-0.180311
-0.122361
-0.0750544
-0.0521098
-0.0385584
-0.0365554
-0.0238305
-0.0189252
-0.0141555
-0.0102729
-0.00695694
-0.00293374
0.00203103
0.00664804
0.0119821
0.0160977
0.0185648
0.0177458
0.019479
0.0169473
0.0131046
0.00646328
0.000167113
-0.0046699
-0.00919155
-0.0151064
-0.0225629
-0.0288028
-0.0322931
-0.0315673
-0.037455
-0.0409789
-0.0353751
-0.0221531
-0.0225296
-0.00564818
0.00481694
-0.535137
-0.290331
-0.253354
-0.358118
-0.182701
-0.075421
-0.0589365
-0.060826
-0.0623643
-0.0453546
-0.043701
-0.0351663
-0.0290522
-0.0250679
-0.0185094