# vtk DataFile Version 4.0
Nusif Fluid VTK output
ASCII
DATASET STRUCTURED_POINTS
DIMENSIONS 40 30 1
ORIGIN 0 0 0 
SPACING 0.2 0.2 1
POINT_DATA 1200 

VECTORS velocity double
-0.00524339 0.00455621  0
-0.0155612 0.00443774  0
-0.0254697 0.00419834  0
-0.0347797 0.0038408  0
-0.0432646 0.00337453  0
-0.0507237 0.00281577  0
-0.0569936 0.00218597  0
-0.0619559 0.00150842  0
-0.0655371 0.000805088  0
-0.0677043 9.42739e-05  0
-0.0684559 -0.000610489  0
-0.0678131 -0.00130028  0
-0.0658112 -0.00196973  0
-0.0624946 -0.00261505  0
-0.0579163 -0.00323163  0
-0.0521417 -0.00381135  0
-0.0452582 -0.00434057  0
-0.0373861 -0.00479978  0
-0.0286887 -0.00516567  0
-0.0193749 -0.00541599  0
-0.00969033 -0.00553599  0
0.000102225 -0.00552359  0
0.00975128 -0.00539195  0
0.0190414 -0.00516403  0
0.0278063 -0.004866  0
0.0359282 -0.0045203  0
0.0433271 -0.00414214  0
0.0499449 -0.00373824  0
0.0557283 -0.0033068  0
0.0606115 -0.002837  0
0.0644962 -0.00230722  0
0.0672276 -0.0016827  0
0.0685679 -0.000915132  0
0.0681747 5.17704e-05  0
0.0656018 0.00126544  0
0.0603487 0.00273267  0
0.0519819 0.00437983  0
0.0403227 0.00602556  0
0.0256492 0.0073944  0
0.00881402 0.00818732  0
-0.00536854 0.0138461  0
-0.0159371 0.0134885  0
-0.0260919 0.0127643  0
-0.0356317 0.0116798  0
-0.0443176 0.0102627  0
-0.0519376 0.00856388  0
-0.0583227 0.00665057  0
-0.0633543 0.00459564  0
-0.0669643 0.00246704  0
-0.0691276 0.000320532  0
-0.0698515 -0.00180351  0
-0.0691647 -0.00387947  0
-0.0671069 -0.00589294  0
-0.0637235 -0.00783469  0
-0.0590641 -0.00969269  0
-0.0531883 -0.0114437  0
-0.0461762 -0.0130468  0
-0.0381431 -0.0144415  0
-0.0292526 -0.0155544  0
-0.0197211 -0.0163147  0
-0.00980954 -0.016675  0
0.000200697 -0.0166284  0
0.0100411 -0.0162169  0
0.0194869 -0.0155144  0
0.0283711 -0.0146032  0
0.0365815 -0.013553  0
0.0440464 -0.0124097  0
0.0507152 -0.0111925  0
0.0565395 -0.0098942  0
0.0614542 -0.00848019  0
0.0653577 -0.00688356  0
0.0680883 -0.00499838  0
0.0693987 -0.00267899  0
0.0689378 0.000242167  0
0.066256 0.00390318  0
0.0608604 0.00831792  0
0.0523372 0.0132597  0
0.0405343 0.0181834  0
0.025751 0.0222692  0
0.00884269 0.024632  0
-0.00563011 0.0235788  0
-0.016722 0.0229775  0
-0.027389 0.0217515  0
-0.0374049 0.0199028  0
-0.0465023 0.0174774  0
-0.0544464 0.0145675  0
-0.0610565 0.0112962  0
-0.0662159 0.00779501  0
-0.0698691 0.00418444  0
-0.0720096 0.000560205  0
-0.0726641 -0.00301157  0
-0.071877 -0.00649233  0
-0.0696978 -0.00986418  0
-0.0661733 -0.0131186  0
-0.0613469 -0.0162417  0
-0.0552659 -0.0191986  0
-0.0479963 -0.0219206  0
-0.0396433 -0.0243007  0
-0.0303703 -0.0262054  0
-0.020409 -0.0275029  0
-0.01005 -0.0281036  0
0.000388296 -0.0279942  0
0.0106046 -0.0272533  0
0.0203562 -0.0260204  0
0.0294757 -0.0244456  0
0.0378628 -0.0226524  0
0.045462 -0.0207181  0
0.0522369 -0.0186709  0
0.058147 -0.0164928  0
0.063128 -0.0141194  0
0.0670711 -0.0114325  0
0.0698003 -0.00825022  0
0.0710502 -0.00432789  0
0.0704531 0.000609145  0
0.0675547 0.00677692  0
0.0618781 0.0141772  0
0.053049 0.0224138  0
0.0409657 0.0305766  0
0.0259651 0.037321  0
0.00890471 0.0412099  0
-0.00605705 0.0340081  0
-0.0180018 0.0331567  0
-0.0294993 0.0313966  0
-0.0402771 0.0287111  0
-0.050018 0.025167  0
-0.0584499 0.0209132  0
-0.0653785 0.016148  0
-0.0706964 0.0110792  0
-0.0743744 0.0058897  0
-0.0764394 0.000718386  0
-0.076951 -0.00434602  0
-0.0759791 -0.00925933  0
-0.0735883 -0.0140099  0
-0.0698283 -0.0186003  0
-0.0647335 -0.023024  0
-0.0583337 -0.0272399  0
-0.0506746 -0.0311507  0
-0.0418463 -0.0345944  0
-0.0320129 -0.0373605  0
-0.0214273 -0.0392366  0
-0.0104219 -0.0400761  0
0.000633168 -0.0398566  0
0.0113909 -0.0387062  0
0.0215857 -0.0368545  0
0.0310526 -0.0345381  0
0.0397085 -0.0319428  0
0.0475196 -0.0291773  0
0.0544669 -0.0262726  0
0.0605183 -0.0231909  0
0.0656068 -0.0198284  0
0.06961 -0.0160069  0
0.0723305 -0.0114621  0
0.073477 -0.00584835  0
0.07266 0.00120823  0
0.0694216 0.00997964  0
0.0633145 0.0204234  0
0.0540281 0.0319486  0
0.0415383 0.0432807  0
0.0262366 0.0525851  0
0.00898052 0.0579279  0
-0.00671709 0.0455336  0
-0.0199746 0.0444175  0
-0.0327321 0.0420563  0
-0.0446327 0.038395  0
-0.0552797 0.0335359  0
-0.0643543 0.0277154  0
-0.0716557 0.0212399  0
-0.0771049 0.0144181  0
-0.0807225 0.00750953  0
-0.0825927 0.000696678  0
-0.0828261 -0.00591683  0
-0.0815305 -0.0122938  0
-0.0787908 -0.0184438  0
-0.0746604 -0.0243949  0
-0.0691628 -0.0301598  0
-0.062307 -0.0356976  0
-0.0541161 -0.040881  0
-0.0446649 -0.0454813  0
-0.0341188 -0.0491907  0
-0.0227561 -0.051692  0
-0.0109556 -0.0527638  0
0.000855825 -0.052372  0
0.0122832 -0.0507123  0
0.0230395 -0.0481357  0
0.0329657 -0.0449857  0
0.0419983 -0.0415191  0
0.0501247 -0.0378732  0
0.0573387 -0.0340723  0
0.0636084 -0.0300461  0
0.0688539 -0.0256402  0
0.0729306 -0.0206076  0
0.0756119 -0.0145953  0
0.0765764 -0.00715735  0
0.0754138 0.00216621  0
0.0716726 0.013671  0
0.0649577 0.0272243  0
0.0550573 0.0420051  0
0.0420608 0.0563813  0
0.0264338 0.0680839  0
0.00902297 0.0747667  0
-0.00775734 0.0587699  0
-0.023065 0.0573441  0
-0.0377322 0.0542259  0
-0.051245 0.0493099  0
-0.0630931 0.0427868  0
-0.0729224 0.0350386  0
-0.0805594 0.0265247  0
-0.0859968 0.0176886  0
-0.0893504 0.00887862  0
-0.0907972 0.000312566  0
-0.0905202 -0.00790877  0
-0.0886747 -0.0157758  0
-0.0853693 -0.0233397  0
-0.0806605 -0.0306713  0
-0.0745609 -0.0378137  0
-0.0670626 -0.0447309  0
-0.0581725 -0.0512618  0
-0.047958 -0.0570989  0
-0.0365916 -0.0618181  0
-0.0243745 -0.0649768  0
-0.0117208 -0.0662653  0
0.000903447 -0.065638  0
0.0130723 -0.063374  0
0.0244886 -0.0599778  0
0.0350023 -0.0559145  0
0.0445633 -0.0515144  0
0.0531648 -0.0469357  0
0.0607933 -0.0421819  0
0.0673956 -0.0371374  0
0.0728601 -0.0315869  0
0.0770043 -0.0252093  0
0.0795659 -0.0175634  0
0.080196 -0.00811007  0
0.0784769 0.00367514  0
0.0739892 0.0180659  0
0.0664323 0.0347767  0
0.055748 0.0527133  0
0.0421891 0.0699046  0
0.0263182 0.0837347  0
0.00894668 0.0915744  0
-0.0094803 0.0747808  0
-0.0281335 0.0729064  0
-0.0457706 0.0686459  0
-0.061576 0.0618856  0
-0.0749134 0.0530735  0
-0.0854843 0.0428282  0
-0.0932392 0.0318022  0
-0.0983223 0.0206061  0
-0.101017 0.00968301  0
-0.101643 -0.000745452  0
-0.10048 -0.0106186  0
-0.0977324 -0.0199864  0
-0.093528 -0.028967  0
-0.0879205 -0.0376885  0
-0.0809151 -0.0462295  0
-0.0725008 -0.0545557  0
-0.0626921 -0.0624637  0
-0.0515732 -0.069558  0
-0.0393345 -0.0752916  0
-0.0262872 -0.0790948  0
-0.0128421 -0.0805731  0
0.000549844 -0.0796731  0
0.0134758 -0.0767601  0
0.0256521 -0.0725104  0
0.0369369 -0.0675062  0
0.0472676 -0.0621398  0
0.0566055 -0.0565747  0
0.064889 -0.0507794  0
0.0720035 -0.0445807  0
0.0777696 -0.0376974  0
0.0819437 -0.0297398  0
0.0842214 -0.020194  0
0.0842403 -0.00844957  0
0.0816075 0.00604631  0
0.0759868 0.0234834  0
0.0672418 0.043342  0
0.0555552 0.0642004  0
0.0414193 0.0837941  0
0.0255292 0.0992883  0
0.00862072 0.107983  0
-0.0124656 0.0955122  0
-0.036806 0.0927967  0
-0.0591867 0.0864582  0
-0.0782106 0.0765867  0
-0.0931943 0.0643764  0
-0.104198 0.0507821  0
-0.111514 0.0366004  0
-0.115569 0.0226257  0
-0.116924 0.009392  0
-0.116113 -0.00296077  0
-0.113517 -0.0144847  0
-0.10937 -0.0253363  0
-0.103791 -0.0357232  0
-0.0968183 -0.0458356  0
-0.0884544 -0.0557746  0
-0.0787165 -0.0654855  0
-0.0676757 -0.0747062  0
-0.0554783 -0.0829541  0
-0.0423483 -0.0895864  0
-0.0285746 -0.0939428  0
-0.0144864 -0.0955799  0
-0.000429648 -0.0944363  0
0.0132674 -0.0909411  0
0.0263683 -0.0859275  0
0.0387277 -0.080054  0
0.0502243 -0.0737398  0
0.0607239 -0.0671322  0
0.0700519 -0.0601531  0
0.0779716 -0.0525602  0
0.0841772 -0.0440077  0
0.0883165 -0.0340604  0
0.0900303 -0.0221814  0
0.0889759 -0.00774242  0
0.0848542 0.00977878  0
0.0774944 0.0304175  0
0.0670173 0.0533168  0
0.0539738 0.0766431  0
0.0392085 0.0979404  0
0.023634 0.114294  0
0.00787977 0.123327  0
-0.0177041 0.124481  0
-0.0518108 0.11992  0
-0.081814 0.10941  0
-0.105247 0.0937827  0
-0.121659 0.0762653  0
-0.132206 0.0581317  0
-0.137959 0.0400072  0
-0.139829 0.0228289  0
-0.138804 0.00720382  0
-0.135704 -0.00700045  0
-0.130977 -0.0200844  0
-0.12481 -0.0323675  0
-0.117249 -0.0441488  0
-0.108287 -0.055663  0
-0.0979302 -0.0669854  0
-0.0862759 -0.0779843  0
-0.0735304 -0.088311  0
-0.0599717 -0.0974223  0
-0.0458689 -0.104668  0
-0.0314282 -0.109392  0
-0.0167781 -0.111185  0
-0.00205087 -0.109931  0
0.0125697 -0.10608  0
0.026932 -0.100568  0
0.0408796 -0.0940363  0
0.0541713 -0.086861  0
0.0664951 -0.0791493  0
0.0774924 -0.0707758  0
0.0867253 -0.061404  0
0.0936573 -0.0506147  0
0.0977231 -0.0379711  0
0.0984751 -0.0230479  0
0.0956642 -0.00532112  0
0.0892205 0.0156135  0
0.0792465 0.0396084  0
0.0661802 0.0653617  0
0.0511053 0.0904099  0
0.0353605 0.112378  0
0.0203061 0.12818  0
0.00657096 0.136625  0
-0.0265778 0.167575  0
-0.0766986 0.158716  0
-0.118342 0.13996  0
-0.147603 0.113625  0
-0.164784 0.0877121  0
-0.173188 0.0633298  0
-0.175445 0.0405118  0
-0.173482 0.0199225  0
-0.168809 0.00210215  0
-0.162466 -0.0136524  0
-0.154854 -0.0280837  0
-0.145979 -0.041722  0
-0.135732 -0.0549144  0
-0.124009 -0.0678954  0
-0.110819 -0.0806116  0
-0.0964054 -0.0927383  0
-0.0812212 -0.103799  0
-0.0657718 -0.113254  0
-0.05037 -0.120651  0
-0.0350492 -0.125481  0
-0.0195774 -0.127529  0
-0.00379335 -0.126409  0
0.0122299 -0.122556  0
0.0284739 -0.117008  0
0.0448205 -0.110201  0
0.0608546 -0.102332  0
0.0759934 -0.0934504  0
0.0896395 -0.0834278  0
0.101092 -0.0717465  0
0.109418 -0.0578381  0
0.113593 -0.0412957  0
0.112975 -0.0221635  0
0.107553 -0.000278337  0
0.0977546 0.0245089  0
0.0840914 0.0520475  0
0.0671517 0.080627  0
0.0487633 0.106307  0
0.0308088 0.127879  0
0.0156593 0.140583  0
0.00463561 0.146681  0
-0.0403615 0.233341  0
-0.113258 0.213647  0
-0.169297 0.180419  0
-0.20595 0.136785  0
-0.224382 0.0978668  0
-0.228655 0.0635517  0
-0.224661 0.0362513  0
-0.217701 0.0129568  0
-0.208897 -0.00671497  0
-0.19874 -0.0236404  0
-0.187551 -0.0392039  0
-0.175187 -0.054148  0
-0.161411 -0.068819  0
-0.145983 -0.0834491  0
-0.128857 -0.0976806  0
-0.110487 -0.110761  0
-0.0917231 -0.12203  0
-0.0734502 -0.131051  0
-0.0560173 -0.137995  0
-0.0391874 -0.142593  0
-0.0221381 -0.145242  0
-0.00439564 -0.144527  0
0.0138361 -0.140998  0
0.0328153 -0.136094  0
0.0526989 -0.12965  0
0.0728479 -0.121372  0
0.0922246 -0.111232  0
0.109996 -0.0993688  0
0.125248 -0.0848145  0
0.136446 -0.0665971  0
0.141599 -0.0441673  0
0.139617 -0.0189926  0
0.130833 0.00845555  0
0.116577 0.0375311  0
0.0982364 0.0687325  0
0.0756678 0.101155  0
0.0519054 0.125636  0
0.0285953 0.147522  0
0.0103888 0.152003  0
0.00210495 0.152275  0
-0.0574766 0.330021  0
-0.150539 0.280624  0
-0.21264 0.229296  0
-0.260896 0.17053  0
-0.28977 0.109137  0
-0.288998 0.0534878  0
-0.276669 0.027696  0
-0.268866 0.00445133  0
-0.259339 -0.0188413  0
-0.245858 -0.0374535  0
-0.230299 -0.0544406  0
-0.213175 -0.070702  0
-0.194664 -0.0868545  0
-0.174318 -0.10349  0
-0.151795 -0.119591  0
-0.127837 -0.133481  0
-0.103925 -0.144287  0
-0.0815813 -0.151712  0
-0.0611957 -0.157453  0
-0.0422462 -0.161214  0
-0.0228978 -0.165318  0
-0.00237276 -0.165017  0
0.0185055 -0.161917  0
0.0407692 -0.158718  0
0.0654451 -0.153886  0
0.0915907 -0.145731  0
0.117153 -0.134113  0
0.141066 -0.120474  0
0.162549 -0.102745  0
0.179463 -0.079077  0
0.187931 -0.0476069  0
0.185938 -0.0138743  0
0.173608 0.0221552  0
0.152946 0.0564561  0
0.128972 0.0898308  0
0.0994397 0.129868  0
0.0699704 0.147867  0
0.0350187 0.181268  0
0.00485682 0.164341  0
-0.00122235 0.152015  0
-0.0430093 0.429931  0
-0.111862 0.341482  0
-0.166983 0.284519  0
-0.255087 0.250526  0
-0.321634 0.122845  0
-0.312008 0.0270905  0
-0.30207 0.029535  0
-0.315778 0.00622469  0
-0.315718 -0.0324974  0
-0.299761 -0.0555325  0
-0.278078 -0.0759027  0
-0.253657 -0.0930822  0
-0.228826 -0.110114  0
-0.20234 -0.12936  0
-0.17291 -0.147971  0
-0.141875 -0.16239  0
-0.111641 -0.171821  0
-0.0845696 -0.175888  0
-0.0610076 -0.179519  0
-0.0407211 -0.180678  0
-0.0199162 -0.188301  0
0.00240174 -0.187171  0
0.02437 -0.184903  0
0.0490117 -0.184931  0
0.0788637 -0.184496  0
0.112897 -0.177596  0
0.14666 -0.16387  0
0.178757 -0.149022  0
0.209316 -0.128535  0
0.236275 -0.099455  0
0.251965 -0.0536806  0
0.253614 -0.00974999  0
0.239081 0.0426034  0
0.203691 0.0897718  0
0.16534 0.116554  0
0.130347 0.165387  0
0.113765 0.156115  0
0.0638289 0.256196  0
0.000914016 0.181348  0
-0.00468114 0.14554  0
0.00979786 0.23647  0
-0.0322905 0.183663  0
-0.137997 0.156898  0
-0.181373 0.219673  0
-0.170929 0.129993  0
-0.192401 0.0306426  0
-0.271415 0.0939149  0
-0.347913 0.0303328  0
-0.359266 -0.0476057  0
-0.340143 -0.0777975  0
-0.310238 -0.107521  0
-0.275635 -0.122782  0
-0.244555 -0.138619  0
-0.212648 -0.161542  0
-0.176931 -0.18323  0
-0.140133 -0.197257  0
-0.105428 -0.204185  0
-0.075239 -0.203076  0
-0.0491699 -0.204252  0
-0.0311267 -0.196562  0
-0.0123089 -0.214326  0
0.00780537 -0.205865  0
0.0264073 -0.209067  0
0.0505797 -0.21187  0
0.0827662 -0.221886  0
0.124221 -0.217986  0
0.165725 -0.201039  0
0.20571 -0.186227  0
0.246119 -0.16459  0
0.28707 -0.1336  0
0.311914 -0.06236  0
0.320868 -0.0139625  0
0.312224 0.0677061  0
0.24315 0.16685  0
0.133276 0.185988  0
0.0684681 0.194614  0
0.0579542 0.152843  0
0.0931775 0.230839  0
0.084902 0.0958122  0
0.0207015 0.0704296  0
0 0  0
0 0  0
0 0  0
-0.0854645 0.0649965  0
-0.13199 0.0649965  0
-0.203133 0.026057  0
-0.309228 0.100087  0
-0.305241 0.0487156  0
-0.315993 -0.0450295  0
-0.320752 -0.0964568  0
-0.290588 -0.151222  0
-0.249259 -0.157303  0
-0.217868 -0.168858  0
-0.186759 -0.196608  0
-0.152027 -0.220902  0
-0.117525 -0.233172  0
-0.0857175 -0.23707  0
-0.0568237 -0.231561  0
-0.026526 -0.234418  0
-0.0160579 -0.196619  0
-0.00321884 -0.247067  0
0.0126673 -0.210266  0
0.0250315 -0.236774  0
0.0458867 -0.230334  0
0.0723211 -0.263761  0
0.115378 -0.262915  0
0.157508 -0.242034  0
0.19817 -0.228169  0
0.240381 -0.207557  0
0.288987 -0.182479  0
0.313209 -0.0648359  0
0.320625 -0.0301423  0
0.312992 0.0984493  0
0.295173 0.221859  0
0.204655 0.23107  0
0.112188 0.102564  0
0.0840963 0.0764217  0
0.0289771 0.0764217  0
0 0  0
0 0  0
0 0  0
0 0  0
0 0  0
0 0  0
0 0  0
0 0  0
-0.15262 0.0243578  0
-0.263744 0.0243578  0
-0.206911 -0.0686504  0
-0.191574 -0.103024  0
-0.190718 -0.176821  0
-0.178536 -0.186361  0
-0.15605 -0.194821  0
-0.134047 -0.224901  0
-0.112851 -0.249681  0
-0.0922655 -0.260624  0
-0.0724324 -0.262403  0
-0.0537451 -0.254953  0
-0.0446567 -0.251554  0
0.00433494 -0.221038  0
0.00512838 -0.133002  0
0.00575986 -0.103608  0
0.0393107 -0.126094  0
0.0558441 -0.260551  0
0.0876561 -0.285328  0
0.101548 -0.299442  0
0.13097 -0.278202  0
0.15989 -0.262728  0
0.183295 -0.239757  0
0.194044 -0.210777  0
0.206768 -0.0746276  0
0.218757 -0.0408988  0
0.20417 0.0376846  0
0.242378 0.110929  0
0.147586 0.110929  0
0 0  0
0 0  0
0 0  0
0 0  0
0 0  0
0 0  0
0 0  0
0 0  0
0 0  0
0 0  0
0 0  0
0 0  0
0 0  0
-0.0957871 -0.0515118  0
-0.154248 -0.0515118  0
-0.143386 -0.0888382  0
-0.164384 -0.0988442  0
-0.137021 -0.10299  0
-0.10702 -0.117873  0
-0.095295 -0.130016  0
-0.0862812 -0.135429  0
-0.0758408 -0.136001  0
-0.0639686 -0.132021  0
-0.0509002 -0.125777  0
-0.0223283 -0.125777  0
0 0  0
0 0  0
0 0  0
0.0438281 -0.142664  0
0.101659 -0.142664  0
0.10575 -0.156667  0
0.112362 -0.146866  0
0.13791 -0.138059  0
0.150992 -0.124886  0
0.112467 -0.105756  0
0.121462 -0.0433084  0
0.195898 -0.0204494  0
0.109379 -0.0204494  0
0 0  0
0 0  0
0 0  0
0 0  0
0 0  0
0 0  0
0 0  0
0 0  0
0 0  0
0 0  0
0 0  0
0 0  0
0 0  0
0 0  0
0 0  0
0 0  0
0 0  0
0 0  0
0 0  0
0 0  0
0 0  0
0 0  0
0 0  0
0 0  0
0 0  0
0 0  0
0 0  0
0 0  0
0 0  0
0 0  0
0 0  0
0 0  0
0 0  0
0 0  0
0 0  0
0 0  0
0 0  0
0 0  0
0 0  0
0 0  0
0 0  0
0 0  0
0 0  0
0 0  0
0 0  0
0 0  0
0 0  0
0 0  0
0 0  0
0 0  0
0 0  0
0 0  0
0 0  0
0 0  0
0 0  0
0 0  0
0 0  0
0 0  0
0 0  0
0 0  0
0 0  0
0 0  0
0 0  0
0 0  0
0 0  0
0 0  0
0 0  0
0 0  0
0 0  0
0 0  0
0 0  0
0 0  0
0 0  0
0 0  0
0 0  0
0 0  0
0 0  0
0 0  0
0 0  0
0 0  0
0 0  0
0 0  0
0 0  0
0 0  0
0 0  0
0 0  0
0 0  0
0 0  0
0 0  0
0 0  0
0 0  0
0 0  0
0 0  0
0 0  0
0 0  0
0 0  0
0 0  0
0 0  0
0 0  0
0 0  0
0 0  0
0 0  0
0 0  0
0 0  0
0 0  0
0 0  0
0 0  0
0 0  0
0 0  0
0 0  0
0 0  0
0 0  0
0 0  0
0 0  0
0 0  0
0 0  0
0 0  0
0 0  0
0 0  0
0 0  0
0 0  0
0 0  0
0 0  0
0 0  0
0 0  0
0 0  0
0 0  0
0 0  0
0 0  0
0 0  0
0 0  0
0 0  0
0 0  0
0 0  0
0 0  0
0 0  0
0 0  0
0 0  0
0 0  0
0 0  0
0 0  0
0 0  0
0 0  0
0 0  0
0 0  0
0 0  0
0 0  0
0 0  0
0 0  0
0 0  0
0 0  0
0 0  0
0 0  0
0 0  0
0 0  0
0 0  0
0 0  0
0 0  0
0 0  0
0 0  0
0 0  0
0 0  0
0 0  0
0 0  0
0 0  0
0 0  0
0 0  0
0 0  0
0 0  0
0 0  0
0 0  0
0 0  0
0 0  0
0 0  0
0 0  0
0 0  0
0 0  0
0 0  0
0 0  0
0 0  0
0 0  0
0 0  0
0 0  0
0 0  0
0 0  0
0 0  0
0 0  0
0 0  0
0 0  0
0 0  0
0 0  0
0 0  0
0 0  0
0 0  0
0 0  0
0 0  0
0 0  0
0 0  0
0 0  0
0 0  0
0 0  0
0 0  0
0 0  0
0 0  0
0 0  0
0 0  0
0 0  0
0 0  0
0 0  0
0 0  0
0 0  0
0 0  0
0 0  0
0 0  0
0 0  0
0 0  0
0 0  0
0 0  0
0 0  0
0 0  0
0 0  0
0 0  0
0 0  0
0 0  0
0 0  0
0 0  0
0 0  0
0 0  0
0 0  0
0 0  0
0 0  0
0 0  0
0 0  0
0 0  0
0 0  0
0 0  0
0 0  0
0 0  0
0 0  0
0 0  0
0 0  0
0 0  0
0 0  0
0 0  0
0 0  0
0 0  0
0 0  0
0 0  0
0 0  0
0 0  0
0 0  0
0 0  0
0 0  0
0 0  0
0 0  0
0 0  0
0 0  0
0 0  0
0 0  0
0 0  0
0 0  0
0 0  0
0 0  0
0 0  0
0 0  0
0 0  0
0 0  0
0 0  0
0 0  0
0 0  0
0 0  0
0 0  0
0 0  0
0 0  0
0 0  0
0 0  0
0 0  0
0 0  0
0 0  0
0 0  0
0 0  0
0 0  0
0 0  0
0 0  0
0 0  0
0 0  0
0 0  0
0 0  0
0 0  0
0 0  0
0 0  0
0 0  0
0 0  0
0 0  0
0 0  0
0 0  0
0 0  0
0 0  0
0 0  0
0 0  0
0 0  0
0 0  0
0 0  0
0 0  0
0 0  0
0 0  0
0 0  0
0 0  0
0 0  0
0 0  0
0 0  0
0 0  0
0 0  0
0 0  0
0 0  0
0 0  0
0 0  0
0 0  0
0 0  0
0 0  0
0 0  0
0 0  0
0 0  0
0 0  0
0 0  0
0 0  0
0 0  0
0 0  0
0 0  0
0 0  0
0 0  0
0 0  0
0 0  0
0 0  0
0 0  0
0 0  0
0 0  0
0 0  0
0 0  0
0 0  0
0 0  0
0 0  0
0 0  0
0 0  0
0 0  0
0 0  0
0 0  0
0 0  0
0 0  0
0 0  0
0 0  0
0 0  0
0 0  0
0 0  0
0 0  0
0 0  0
0 0  0
0 0  0
0 0  0
0 0  0
0 0  0
0 0  0
0 0  0
0 0  0
0 0  0
0 0  0
0 0  0
0 0  0
0 0  0
0 0  0
0 0  0
0 0  0
0 0  0
0 0  0
0 0  0
0 0  0
0 0  0
0 0  0
0 0  0
0 0  0
0 0  0
0 0  0
0 0  0
0 0  0
0 0  0
0 0  0
0 0  0
0 0  0
0 0  0
0 0  0
0 0  0
0 0  0
0 0  0
0 0  0
0 0  0
0 0  0
0 0  0
0 0  0
0 0  0
0 0  0
0 0  0
0 0  0
0 0  0
0 0  0
0 0  0
0 0  0
0 0  0
0 0  0
0 0  0
0 0  0
0 0  0
0 0  0
0 0  0
0 0  0
0 0  0
0 0  0
0 0  0
0 0  0
0 0  0
0 0  0
0 0  0
0 0  0
0 0  0
0 0  0
0 0  0
0 0  0
0 0  0
0 0  0
0 0  0
0 0  0
0 0  0
0 0  0
0 0  0
0 0  0
0 0  0
0 0  0
0 0  0
0 0  0
0 0  0
0 0  0
0 0  0
0 0  0
0 0  0
0 0  0
0 0  0
0 0  0
0 0  0
0 0  0
0 0  0
0 0  0
0 0  0
0 0  0
0 0  0
0 0  0
0 0  0
0 0  0
0 0  0
0 0  0
0 0  0
0 0  0
0 0  0
0 0  0
0 0  0
0 0  0
0 0  0
0 0  0
0 0  0
0 0  0
0 0  0
0 0  0
0 0  0
0 0  0
0 0  0
0 0  0
0 0  0
0 0  0
0 0  0
0 0  0
0 0  0
0 0  0
0 0  0
0 0  0
0 0  0
0 0  0
0 0  0
0 0  0
0 0  0
0 0  0
0 0  0
0 0  0
0 0  0
0 0  0
0 0  0
0 0  0
0 0  0
0 0  0
0 0  0
0 0  0
0 0  0
0 0  0
0 0  0
0 0  0
0 0  0
0 0  0
0 0  0
0 0  0
0 0  0
0 0  0
0 0  0
0 0  0
0 0  0
0 0  0
0 0  0
0 0  0
0 0  0
0 0  0
0 0  0
0 0  0
0 0  0
0 0  0
0 0  0
0 0  0
0 0  0
0 0  0
0 0  0
0 0  0
0 0  0

SCALARS pressure double 1
LOOKUP_TABLE default
2.51117
2.51251
2.51525
2.5193
2.52452
2.53074
2.53774
2.5453
2.55317
2.56114
2.56896
2.57644
2.58342
2.58974
2.5953
2.60002
2.60386
2.60678
2.60876
2.60982
2.60996
2.60919
2.60758
2.6051
2.60175
2.59757
2.59257
2.58679
2.58032
2.57325
2.56572
2.55793
2.55011
2.54251
2.53544
2.52916
2.52393
2.51994
2.51729
2.51601
2.31155
2.31296
2.3158
2.32001
2.32544
2.33189
2.33914
2.34695
2.35508
2.36327
2.37129
2.37893
2.38603
2.39243
2.39804
2.40278
2.40661
2.4095
2.41146
2.41248
2.41259
2.41181
2.4102
2.40772
2.40438
2.4002
2.39518
2.38937
2.38281
2.37562
2.36793
2.35993
2.35185
2.34398
2.3366
2.33003
2.32454
2.32032
2.31751
2.31614
2.1123
2.11382
2.1169
2.12145
2.12729
2.13422
2.142
2.15034
2.15897
2.16763
2.17605
2.18403
2.19137
2.19794
2.20364
2.20841
2.21222
2.21506
2.21695
2.21791
2.21797
2.21716
2.21554
2.21308
2.20976
2.20558
2.20054
2.19465
2.18794
2.18051
2.17248
2.16405
2.15546
2.147
2.13901
2.13182
2.12575
2.12106
2.11789
2.11634
1.9133
1.915
1.91843
1.9235
1.93001
1.9377
1.9463
1.95547
1.9649
1.97428
1.98333
1.9918
1.99952
2.00633
2.01217
2.01697
2.02073
2.02347
2.02524
2.02609
2.02606
2.0252
2.02359
2.02116
2.0179
2.01376
2.00871
2.00272
1.9958
1.98801
1.97948
1.97038
1.96099
1.95162
1.94265
1.93448
1.92749
1.92202
1.91828
1.91643
1.71433
1.71627
1.7202
1.726
1.73345
1.74224
1.75201
1.76236
1.77291
1.7833
1.79321
1.80236
1.81057
1.8177
1.82369
1.82849
1.83215
1.83473
1.8363
1.83695
1.83679
1.83587
1.83428
1.83195
1.82881
1.82477
1.81976
1.81369
1.80652
1.79828
1.78906
1.77906
1.76855
1.75789
1.74752
1.73793
1.72959
1.72297
1.7184
1.7161
1.51508
1.51733
1.52191
1.52869
1.53742
1.5477
1.55907
1.57102
1.58307
1.59481
1.60583
1.61586
1.62469
1.63219
1.63832
1.64308
1.64654
1.64882
1.65006
1.65043
1.65006
1.64906
1.64754
1.64538
1.64247
1.63867
1.6338
1.6277
1.62029
1.61151
1.60145
1.59028
1.57829
1.56589
1.55361
1.54205
1.53184
1.52359
1.51783
1.5149
1.31514
1.31774
1.3231
1.33116
1.3416
1.3539
1.3674
1.38147
1.39549
1.40895
1.42139
1.4325
1.44206
1.44997
1.4562
1.46081
1.46393
1.46573
1.46646
1.46637
1.4657
1.4646
1.4632
1.46136
1.45888
1.45552
1.45097
1.44498
1.43736
1.42802
1.41696
1.40433
1.39046
1.37579
1.36097
1.34675
1.33395
1.32345
1.31603
1.31222
1.1139
1.11682
1.12308
1.13276
1.14552
1.16054
1.17689
1.19373
1.2103
1.22595
1.24015
1.25255
1.26296
1.27128
1.27755
1.28185
1.28439
1.28545
1.28539
1.2846
1.28347
1.28223
1.28106
1.27975
1.278
1.27538
1.27145
1.26579
1.2581
1.24818
1.23598
1.22162
1.20539
1.18783
1.16969
1.15192
1.13561
1.12199
1.11226
1.10724
0.910492
0.913522
0.920684
0.932441
0.948442
0.967214
0.987371
1.00784
1.02768
1.04607
1.0624
1.07633
1.08767
1.0964
1.10258
1.10637
1.10803
1.10797
1.1067
1.10484
1.103
1.10157
1.10075
1.1003
1.09973
1.09834
1.09545
1.09045
1.0829
1.0725
1.05908
1.04267
1.02356
1.00236
0.979956
0.957533
0.936437
0.918432
0.905504
0.898845
0.703437
0.705922
0.713723
0.728227
0.749223
0.773357
0.798588
0.823833
0.847868
0.869633
0.888539
0.904216
0.916554
0.925615
0.931547
0.93456
0.934973
0.933275
0.930192
0.926684
0.923757
0.922018
0.921739
0.922613
0.923889
0.924445
0.923193
0.91932
0.912244
0.901525
0.886851
0.868124
0.845536
0.819817
0.791974
0.763569
0.735974
0.711626
0.694319
0.685567
0.489877
0.490247
0.497931
0.516303
0.546348
0.578381
0.610163
0.641739
0.671118
0.697059
0.719026
0.736624
0.749923
0.75919
0.764689
0.766659
0.765406
0.761429
0.755636
0.749505
0.744876
0.742643
0.74312
0.745986
0.75018
0.75372
0.754907
0.752729
0.746539
0.735778
0.719894
0.698584
0.671902
0.640635
0.605781
0.570086
0.533771
0.499447
0.476468
0.46548
0.264205
0.26012
0.266253
0.289117
0.339144
0.38246
0.421579
0.461908
0.497844
0.528929
0.554481
0.574009
0.588033
0.597267
0.602151
0.602902
0.599663
0.592684
0.582821
0.572283
0.565004
0.562059
0.563475
0.569219
0.578146
0.586235
0.590795
0.590857
0.58595
0.575478
0.558468
0.534332
0.503098
0.465152
0.420539
0.377356
0.33034
0.276809
0.248388
0.236435
0.0214905
0.0126182
0.0142145
0.0290421
0.135003
0.189111
0.231585
0.28583
0.328994
0.366155
0.395907
0.416981
0.431071
0.439816
0.443949
0.443571
0.43841
0.427898
0.411944
0.393158
0.381986
0.378491
0.380637
0.390137
0.407414
0.422414
0.431182
0.433715
0.430259
0.420337
0.402251
0.375256
0.338961
0.29447
0.232524
0.186907
0.132823
0.0259234
0.00479774
-0.00255304
0
0
0
0
-0.00456497
0.0103912
0.0284877
0.119781
0.164925
0.210146
0.245341
0.266711
0.279356
0.286727
0.289995
0.289009
0.282878
0.269417
0.245015
0.207825
0.192279
0.190704
0.191436
0.20393
0.238752
0.264028
0.276938
0.281395
0.279183
0.269927
0.251028
0.221424
0.177371
0.134614
0.0261521
0.00495669
-0.0120129
0
0
0
0
0
0
0
0
0
0
0.00058962
0.00504451
0.0654882
0.107982
0.125371
0.133623
0.138107
0.140214
0.139478
0.134783
0.122513
0.0915659
0.00267155
-0.0105142
0.00242895
-0.0082628
-0.003416
0.0787856
0.116577
0.129993
0.13443
0.133424
0.12585
0.108996
0.0802389
0.00811724
0.0234157
0
0
0
0
0
0
0
0
0
0
0
0
0
0
0
-0.0282768
0
-0.00580934
-0.00548668
-0.00543134
-0.00521575
-0.00515734
-0.00483216
-0.00463485
-0.00131883
0
0
0
0
0
-0.0351495
-0.00683473
-0.00779934
-0.00672595
-0.00506263
-0.000308085
-0.00585957
-0.00851395
0
0
0
0
0
0
0
0
0
0
0
0
0
0
0
0
0
0
0
0
0
0
0
0
0
0
0
0
0
0
0
0
0
0
0
0
0
0
0
0
0
0
0
0
0
0
0
0
0
0
0
0
0
0
0
0
0
0
0
0
0
0
0
0
0
0
0
0
0
0
0
0
0
0
0
0
0
0
0
0
0
0
0
0
0
0
0
0
0
0
0
0
0
0
0
0
0
0
0
0
0
0
0
0
0
0
0
0
0
0
0
0
0
0
0
0
0
0
0
0
0
0
0
0
0
0
0
0
0
0
0
0
0
0
0
0
0
0
0
0
0
0
0
0
0
0
0
0
0
0
0
0
0
0
0
0
0
0
0
0
0
0
0
0
0
0
0
0
0
0
0
0
0
0
0
0
0
0
0
0
0
0
0
0
0
0
0
0
0
0
0
0
0
0
0
0
0
0
0
0
0
0
0
0
0
0
0
0
0
0
0
0
0
0
0
0
0
0
0
0
0
0
0
0
0
0
0
0
0
0
0
0
0
0
0
0
0
0
0
0
0
0
0
0
0
0
0
0
0
0
0
0
0
0
0
0
0
0
0
0
0
0
0
0
0
0
0
0
0
0
0
0
0
0
0
0
0
0
0
0
0
0
0
0
0
0
0
0
0
0
0
0
0
0
0
0
0
0
0
0
0
0
0
0
0
0
0
0
0
0
0
0
0
0
0
0
0
0
0
0
0
0
0
0
0
0
0
0
0
0
0
0
0
0
0
0
0
0
0
0
0
0
0
0
0
0
0
0
0
0
0
0
0
0
0
0
0
0
0
0
0
0
0
0
0
0
0
0
0
0
0
0
0
0
0
0
0
0
0
0
0
0
0
0
0
0
0
0
0
0
0
0
0
0
0
0
0
0
0
0
0
0
0
0
0
0
0
0
0
0
0
0
0
0
0
0
0
0
0
0
0
0
0
0
0
0
0
0
0
0
0
0
0
0
0
0
0
0
0
0
0
0
0
0
0
0
0
0
0
0
0
0
0
0
0
0
0
0
0
0
0
0
0
0
0
0
0
0
0
0
0
0
0
0
0
0
0
0
0
0
0
0
0
0
0
0
0
0
0
0
0
0
0
0
0
0
0
0
0
0
0
0
0
0
0
0
0
0
0
0
0
0
0
0
0
0
0
0
0
0
0
0
0
0
0
0
0
0
0
0
0
0
0
0
0
0
0
0
0
0
0
0
0
0
0
0
0
0
0
0
0
0
0
0
0
0
0
0
0
0
0
0
0
0
0
0
0
0
SCALARS rhs double 1
LOOKUP_TABLE default
-5.07033
-5.01705
-5.0154
-5.01416
-5.01303
-5.01205
-5.01127
-5.01071
-5.01039
-5.0103
-5.01044
-5.01079
-5.01133
-5.01203
-5.01284
-5.01374
-5.01464
-5.01547
-5.01613
-5.01653
-5.01659
-5.01515
-5.01578
-5.01497
-5.01397
-5.01288
-5.01173
-5.01058
-5.00944
-5.00832
-5.00724
-5.00624
-5.00538
-5.00483
-5.00479
-5.00554
-5.00733
-5.01012
-5.01326
-5.0175
-0.0168485
0.0335566
0.0343579
0.0350116
0.0357246
0.0364462
0.0370924
0.0375991
0.0379389
0.0380686
0.0379676
0.0377464
0.0373672
0.0368441
0.036202
0.0354765
0.0347119
0.0339806
0.0333705
0.0329711
0.0328648
0.034201
0.0333494
0.0339216
0.0346137
0.0353572
0.0361053
0.036832
0.0375252
0.038178
0.0387814
0.0393102
0.0396997
0.0398543
0.0394828
0.0382428
0.0358791
0.0324816
0.0288011
0.0242224
-0.0132413
0.0347114
0.0354735
0.0360852
0.0368001
0.0375127
0.038157
0.0386752
0.0390087
0.0391252
0.0389797
0.0387691
0.038385
0.0378669
0.037217
0.0364733
0.0356808
0.0349146
0.0342735
0.0338608
0.033795
0.0352231
0.034347
0.0349832
0.035729
0.0365106
0.0372815
0.0380196
0.0387168
0.0393692
0.0399663
0.0404775
0.0408319
0.0409621
0.0405339
0.0392409
0.0368711
0.0335381
0.029973
0.0254677
-0.00973843
0.0352661
0.0359703
0.0365637
0.0372784
0.0380183
0.0386919
0.0392362
0.0395999
0.0396998
0.0395383
0.0393433
0.0389791
0.0384653
0.0378128
0.0370455
0.0362139
0.0354007
0.0347197
0.0342945
0.0342939
0.035868
0.0349541
0.0356844
0.0365077
0.0373436
0.038148
0.0389048
0.0396123
0.0402691
0.0408618
0.0413529
0.0416625
0.0417541
0.041239
0.0398835
0.037521
0.0342908
0.0308891
0.026486
-0.00636011
0.0352896
0.0359071
0.0365036
0.0372506
0.0380597
0.0388211
0.0394444
0.039882
0.0399891
0.0398458
0.0397015
0.0393828
0.0388902
0.0382409
0.037455
0.0365851
0.0357238
0.0350058
0.0345789
0.0346651
0.0364487
0.0354722
0.0363119
0.0372203
0.0381124
0.0389511
0.0397315
0.0404582
0.0411299
0.0417281
0.0422059
0.0424772
0.0425393
0.0419404
0.0405595
0.0382618
0.0351972
0.0320062
0.0277416
-0.00384482
0.0341459
0.0347119
0.0353705
0.0362531
0.0372376
0.0381982
0.0390219
0.0396321
0.0397725
0.0397271
0.0397024
0.039468
0.0390342
0.0384167
0.0376422
0.0367676
0.0358965
0.0351809
0.0347883
0.0349658
0.0370395
0.0359419
0.0368673
0.037827
0.0387465
0.039606
0.0404116
0.0411718
0.0418802
0.0425057
0.0429913
0.0432526
0.0433465
0.0427292
0.0414415
0.0393459
0.0365583
0.0336333
0.0295651
-0.00399763
0.0303375
0.0310334
0.0320499
0.0333458
0.0347601
0.036172
0.0374393
0.0384393
0.0385462
0.03885
0.0390444
0.0389676
0.0386519
0.0381313
0.0374516
0.0366805
0.0359225
0.0353241
0.035048
0.0352787
0.0377474
0.0363912
0.0372929
0.038194
0.0390607
0.0398997
0.0407233
0.0415326
0.0423014
0.0429744
0.0434815
0.0437722
0.044047
0.0435549
0.0425913
0.0409736
0.0386908
0.0361626
0.0324197
-0.0115352
0.0200252
0.0215809
0.0240649
0.0266479
0.0291112
0.0315335
0.0337704
0.0355842
0.0354997
0.0366248
0.0371691
0.0373378
0.0372162
0.0369047
0.0364975
0.0360733
0.0357009
0.0354586
0.0354423
0.0356953
0.038434
0.0367842
0.0373326
0.0379478
0.0385998
0.0393275
0.0401243
0.0409581
0.0417605
0.0424314
0.0428804
0.0433177
0.0438282
0.0437189
0.0434177
0.0427914
0.0415091
0.039799
0.0367084
-0.0389557
-0.00656983
-0.00169987
0.00596989
0.012548
0.017682
0.022325
0.0266092
0.0297341
0.029544
0.0321549
0.0331605
0.0336269
0.0337701
0.0338377
0.0340271
0.0344081
0.0349151
0.0354102
0.0358328
0.0360977
0.0385703
0.0368064
0.0363588
0.0362856
0.0364214
0.0368324
0.0374072
0.0380423
0.0386081
0.0389549
0.0389638
0.0397151
0.0406312
0.0408465
0.0415765
0.042943
0.0436801
0.0440056
0.0423266
-0.116989
-0.0694553
-0.0538992
-0.0316747
-0.0146987
-0.00271519
0.00675275
0.0147295
0.0164969
0.021758
0.0243847
0.0258348
0.0265537
0.0269721
0.0276595
0.0290035
0.0309577
0.0330943
0.0347704
0.0357433
0.0356826
0.0377763
0.0355404
0.0334101
0.0319339
0.0309453
0.0305747
0.0303011
0.0298637
0.0291029
0.0280421
0.0266119
0.0298121
0.0294387
0.0296405
0.0315056
0.0372282
0.041427
0.0469972
0.0481676
-0.302832
-0.176964
-0.128829
-0.0890915
-0.0587919
-0.0306452
-0.0103443
1.20256e-05
-0.00104239
0.00952813
0.0126006
0.0144081
0.015274
0.015805
0.0173678
0.020692
0.0253003
0.0300359
0.0331978
0.034694
0.0334646
0.0357576
0.0323243
0.0278799
0.0235608
0.0201532
0.0182661
0.0158114
0.0120005
0.00660442
0.00142064
-0.00291628
0.00569856
0.00282075
0.00313066
0.00411051
0.0202087
0.0236773
0.0454328
0.0520538
-0.530084