# vtk DataFile Version 4.0
Nusif Fluid VTK output
ASCII
DATASET STRUCTURED_POINTS
DIMENSIONS 40 30 1
ORIGIN 0 0 0 
SPACING 0.2 0.2 1
POINT_DATA 1200 

VECTORS velocity double
0.0091366 -0.00895629  0
0.0270838 -0.00868007  0
0.0441646 -0.00814071  0
0.0599287 -0.00736527  0
0.0739406 -0.00638997  0
0.0858425 -0.00525643  0
0.095362 -0.00400857  0
0.102315 -0.00269024  0
0.106602 -0.00134407  0
0.108211 -1.1042e-05  0
0.107205 0.00126966  0
0.103727 0.00246089  0
0.0979904 0.00352915  0
0.090268 0.00444651  0
0.0808815 0.0051934  0
0.0701803 0.00576136  0
0.0585178 0.00615499  0
0.0462251 0.0063916  0
0.0335905 0.00649696  0
0.0208499 0.00649768  0
0.00819388 0.00641234  0
-0.00420924 0.00624468  0
-0.0161802 0.00598008  0
-0.0274998 0.00559305  0
-0.0378949 0.00505543  0
-0.0470444 0.00434712  0
-0.0546012 0.0034625  0
-0.0602239 0.0024128  0
-0.0636097 0.00122538  0
-0.0645252 -5.77388e-05  0
-0.062835 -0.00138039  0
-0.0585324 -0.00267029  0
-0.0517783 -0.00383191  0
-0.0429598 -0.00473477  0
-0.0327655 -0.00520772  0
-0.0222422 -0.0050637  0
-0.0127357 -0.00419094  0
-0.00558115 -0.0027117  0
-0.00152291 -0.0010946  0
-0.000151167 -2.51852e-05  0
0.00941289 -0.0271965  0
0.0278996 -0.0263523  0
0.0454799 -0.0247062  0
0.0616804 -0.022343  0
0.0760507 -0.0193749  0
0.0882255 -0.0159299  0
0.0979301 -0.012142  0
0.104981 -0.00814397  0
0.109284 -0.00406429  0
0.110826 -2.5958e-05  0
0.109679 0.00385293  0
0.10599 0.00745983  0
0.0999813 0.0106921  0
0.0919403 0.0134632  0
0.0822083 0.0157116  0
0.0711585 0.0174107  0
0.0591684 0.0185752  0
0.0465882 0.0192612  0
0.0337142 0.019553  0
0.0207749 0.0195385  0
0.00793962 0.0192798  0
-0.00465298 0.0187898  0
-0.0168501 0.0180197  0
-0.0284451 0.0168842  0
-0.0391596 0.0152899  0
-0.048652 0.0131702  0
-0.0565464 0.0105059  0
-0.0624703 0.00733107  0
-0.0660934 0.00373076  0
-0.0671616 -0.000164861  0
-0.0655283 -0.00418237  0
-0.0611856 -0.00809934  0
-0.0543046 -0.0116238  0
-0.045291 -0.0143608  0
-0.0348549 -0.0157979  0
-0.0240568 -0.0153806  0
-0.0142398 -0.0127832  0
-0.00672372 -0.00837569  0
-0.00224266 -0.00355548  0
-0.000397567 -0.000366696  0
0.00998045 -0.0463351  0
0.0295733 -0.0448761  0
0.0481731 -0.0420379  0
0.0652596 -0.0379741  0
0.0803537 -0.0328845  0
0.0930757 -0.0269937  0
0.103149 -0.0205324  0
0.110393 -0.0137261  0
0.114722 -0.00678989  0
0.11613 7.15795e-05  0
0.114696 0.00666001  0
0.110577 0.012784  0
0.104013 0.0182647  0
0.0953195 0.0229482  0
0.0848794 0.0267224  0
0.0731153 0.0295376  0
0.0604563 0.0314214  0
0.0472943 0.0324811  0
0.0339435 0.0328819  0
0.0206175 0.0327988  0
0.00743816 0.032358  0
-0.00552142 0.0315875  0
-0.0181676 0.0303888  0
-0.0303209 0.0285869  0
-0.0416911 0.025995  0
-0.0518921 0.0224815  0
-0.0604857 0.0180055  0
-0.0670339 0.0126264  0
-0.0711485 0.00649568  0
-0.0725319 -0.000155607  0
-0.0710126 -0.00702172  0
-0.0665795 -0.0137133  0
-0.0594225 -0.0197254  0
-0.0499853 -0.0243874  0
-0.039024 -0.026846  0
-0.0276352 -0.0261967  0
-0.0171699 -0.0219266  0
-0.00892797 -0.0146674  0
-0.00362316 -0.00672679  0
-0.000868974 -0.00147182  0
0.0108693 -0.0669373  0
0.0321899 -0.0647797  0
0.0523725 -0.0605969  0
0.0708231 -0.0546329  0
0.0870199 -0.0471977  0
0.100567 -0.0386306  0
0.111188 -0.0292709  0
0.118715 -0.0194418  0
0.123076 -0.00944463  0
0.124275 0.000436482  0
0.1224 0.00992309  0
0.117621 0.0187385  0
0.110199 0.026615  0
0.100495 0.0333143  0
0.0889524 0.0386577  0
0.0760758 0.0425623  0
0.0623793 0.0450717  0
0.0483249 0.0463667  0
0.0342585 0.046733  0
0.0203702 0.0464816  0
0.00670219 0.0458419  0
-0.0067872 0.0448719  0
-0.0201064 0.043389  0
-0.0331212 0.0410738  0
-0.0455189 0.0375948  0
-0.0568387 0.0327211  0
-0.0665394 0.0263785  0
-0.0740766 0.0186569  0
-0.0789689 0.00979  0
-0.0808488 0.000131255  0
-0.0795034 -0.00985531  0
-0.0749141 -0.0195842  0
-0.0672989 -0.0283088  0
-0.0571615 -0.0350606  0
-0.0453354 -0.0386421  0
-0.0329845 -0.0378222  0
-0.0214896 -0.0319431  0
-0.0121366 -0.0219274  0
-0.00561393 -0.0109759  0
-0.00154541 -0.003727  0
0.0121262 -0.0896934  0
0.0358817 -0.0867028  0
0.0582749 -0.080935  0
0.0786068 -0.0727631  0
0.0963013 -0.062645  0
0.110948 -0.0510631  0
0.122286 -0.0384834  0
0.130174 -0.0253321  0
0.134565 -0.0119923  0
0.135481 0.00118145  0
0.133013 0.0138348  0
0.127337 0.0255966  0
0.118741 0.0360887  0
0.107638 0.0449612  0
0.094564 0.0519415  0
0.0801373 0.0568963  0
0.0649972 0.0598891  0
0.0497101 0.0612057  0
0.0346723 0.0613132  0
0.0200419 0.060735  0
0.00574292 0.0598702  0
-0.00844357 0.058834  0
-0.0226821 0.0572991  0
-0.0369022 0.0547128  0
-0.050754 0.0505192  0
-0.0636633 0.0443394  0
-0.0749388 0.0360499  0
-0.0838828 0.0257799  0
-0.0898801 0.0138696  0
-0.092462 0.000826308  0
-0.0913541 -0.0126906  0
-0.0865236 -0.0258558  0
-0.0782265 -0.0376365  0
-0.0670529 -0.0467307  0
-0.0539523 -0.0515855  0
-0.0401983 -0.0506702  0
-0.0272343 -0.0432404  0
-0.0163474 -0.0305564  0
-0.0081999 -0.0167035  0
-0.00241927 -0.00753484  0
0.0138118 -0.115401  0
0.0408179 -0.111372  0
0.0661269 -0.103659  0
0.0888971 -0.0928324  0
0.108491 -0.0795555  0
0.124498 -0.0644986  0
0.136699 -0.0482782  0
0.14501 -0.0314288  0
0.149432 -0.0144008  0
0.150008 0.00240524  0
0.14682 0.018575  0
0.140033 0.0336287  0
0.129952 0.0470428  0
0.117058 0.0583123  0
0.102001 0.0670302  0
0.0855566 0.0729885  0
0.0685272 0.076276  0
0.0516182 0.0773248  0
0.0352967 0.0768634  0
0.019686 0.0757359  0
0.00455292 0.0746113  0
-0.0105655 0.0737076  0
-0.026044 0.0724521  0
-0.0418872 0.0699323  0
-0.057688 0.0652609  0
-0.0727203 0.0578479  0
-0.0860948 0.0474998  0
-0.0969119 0.034399  0
-0.10438 0.0190238  0
-0.107894 0.0020757  0
-0.107093 -0.0155416  0
-0.101918 -0.0327024  0
-0.0926729 -0.0480243  0
-0.080063 -0.0598186  0
-0.0651995 -0.0661536  0
-0.0495181 -0.0652291  0
-0.0345675 -0.0562877  0
-0.0216588 -0.040996  0
-0.0114309 -0.0243305  0
-0.00350545 -0.0133052  0
0.0159817 -0.144974  0
0.0471496 -0.1396  0
0.0761402 -0.129427  0
0.101928 -0.11532  0
0.123809 -0.0982401  0
0.1414 -0.0791098  0
0.154565 -0.0587311  0
0.163334 -0.037754  0
0.167804 -0.0166645  0
0.168047 0.00415101  0
0.164103 0.0242635  0
0.156075 0.0430589  0
0.144267 0.0598052  0
0.129233 0.0737809  0
0.111769 0.0843858  0
0.0928415 0.0913098  0
0.0734505 0.0946797  0
0.0544603 0.0951252  0
0.0364229 0.0937269  0
0.0194302 0.0917809  0
0.00307101 0.0903634  0
-0.0134039 0.0898535  0
-0.030602 0.0892871  0
-0.0485959 0.0872385  0
-0.066906 0.0823693  0
-0.0846345 0.0738035  0
-0.100661 0.0612482  0
-0.113842 0.0449516  0
-0.123172 0.0255709  0
-0.127872 0.00404512  0
-0.127462 -0.0184205  0
-0.121839 -0.0403185  0
-0.111359 -0.0598313  0
-0.0968636 -0.0748141  0
-0.0796702 -0.0829121  0
-0.061437 -0.0820822  0
-0.0438713 -0.0716477  0
-0.0283384 -0.0537741  0
-0.0154628 -0.0343523  0
-0.00485461 -0.0215134  0
0.0186382 -0.179384  0
0.0548832 -0.172245  0
0.0883157 -0.158908  0
0.117668 -0.140682  0
0.142161 -0.118955  0
0.161471 -0.0950002  0
0.175617 -0.0698558  0
0.18483 -0.0443152  0
0.189399 -0.0188448  0
0.18946 0.00632265  0
0.184923 0.0308697  0
0.17572 0.0539813  0
0.16211 0.0745982  0
0.144723 0.0917067  0
0.124521 0.104424  0
0.102706 0.112314  0
0.0804932 0.115579  0
0.0588945 0.115115  0
0.0385296 0.112439  0
0.0194645 0.109426  0
0.00112761 0.107714  0
-0.0174695 0.107874  0
-0.0370997 0.108394  0
-0.0578769 0.107202  0
-0.0792735 0.102411  0
-0.100255 0.092769  0
-0.119469 0.0778214  0
-0.135502 0.0578887  0
-0.147104 0.0338619  0
-0.153297 0.00694438  0
-0.153435 -0.0212957  0
-0.147333 -0.0488721  0
-0.135365 -0.0734288  0
-0.118507 -0.0922732  0
-0.0983227 -0.102533  0
-0.0767822 -0.101937  0
-0.0558226 -0.0900203  0
-0.0368879 -0.0695707  0
-0.0205995 -0.0474211  0
-0.00656752 -0.0327863  0
0.0216698 -0.219493  0
0.0637173 -0.210083  0
0.102217 -0.192711  0
0.135567 -0.169291  0
0.162863 -0.141843  0
0.183877 -0.112146  0
0.19884 -0.0815278  0
0.208324 -0.0510506  0
0.213035 -0.0210987  0
0.213279 0.00856151  0
0.208641 0.0380965  0
0.198619 0.0662706  0
0.183391 0.0914385  0
0.163655 0.112282  0
0.140548 0.12745  0
0.115573 0.136372  0
0.0901782 0.139421  0
0.0654637 0.13788  0
0.0420293 0.133769  0
0.0198868 0.129599  0
-0.00161081 0.12767  0
-0.0234659 0.128665  0
-0.0464017 0.130463  0
-0.0705565 0.130358  0
-0.0954919 0.12588  0
-0.120178 0.11526  0
-0.143079 0.0977375  0
-0.162465 0.073682  0
-0.176844 0.0443412  0
-0.185035 0.0111394  0
-0.186133 -0.0239645  0
-0.179736 -0.0584122  0
-0.166134 -0.0891677  0
-0.146379 -0.112856  0
-0.122357 -0.125866  0
-0.0965544 -0.125655  0
-0.0712683 -0.112255  0
-0.0479846 -0.0892618  0
-0.0272782 -0.0644315  0
-0.00879284 -0.048  0
0.0248492 -0.265824  0
0.073069 -0.253689  0
0.117061 -0.231312  0
0.154677 -0.201371  0
0.184759 -0.166856  0
0.207198 -0.130302  0
0.222411 -0.0932638  0
0.231493 -0.0575983  0
0.236111 -0.0235955  0
0.2371 0.0101092  0
0.233207 0.0453643  0
0.22284 0.0796768  0
0.20629 0.110097  0
0.184407 0.13553  0
0.158408 0.153596  0
0.130219 0.163679  0
0.101547 0.166471  0
0.0735015 0.16388  0
0.046473 0.158521  0
0.0202848 0.153467  0
-0.00563384 0.151508  0
-0.0318372 0.153175  0
-0.0586492 0.15599  0
-0.0863135 0.156938  0
-0.114828 0.153037  0
-0.143475 0.141723  0
-0.170617 0.121602  0
-0.194056 0.0929284  0
-0.212057 0.0577601  0
-0.223278 0.0174158  0
-0.226302 -0.025835  0
-0.220186 -0.0687699  0
-0.204907 -0.107407  0
-0.181565 -0.137428  0
-0.15253 -0.154064  0
-0.121261 -0.154242  0
-0.0906911 -0.139237  0
-0.0621379 -0.113828  0
-0.0358963 -0.0865248  0
-0.0116757 -0.0683243  0
0.0280219 -0.318519  0
0.0826092 -0.303485  0
0.132482 -0.2751  0
0.174517 -0.236955  0
0.207099 -0.193658  0
0.230228 -0.148791  0
0.244155 -0.103637  0
0.250811 -0.0626862  0
0.254174 -0.0262108  0
0.256621 0.00956676  0
0.254562 0.0521362  0
0.243474 0.0946396  0
0.225158 0.13028  0
0.201223 0.161445  0
0.172521 0.182664  0
0.141514 0.194089  0
0.110011 0.196519  0
0.0792013 0.192971  0
0.0490836 0.186861  0
0.0190304 0.181654  0
-0.0113651 0.17992  0
-0.0416709 0.181556  0
-0.0715346 0.184568  0
-0.1016 0.186372  0
-0.132886 0.183684  0
-0.16553 0.172648  0
-0.197973 0.150542  0
-0.226782 0.116515  0
-0.24983 0.0755013  0
-0.265919 0.0272619  0
-0.272449 -0.0258493  0
-0.267433 -0.079609  0
-0.250532 -0.128469  0
-0.223177 -0.166784  0
-0.18812 -0.18852  0
-0.150224 -0.188669  0
-0.113671 -0.171651  0
-0.0792658 -0.14409  0
-0.0465436 -0.114943  0
-0.0152643 -0.0951226  0
0.0313724 -0.377748  0
0.0928425 -0.360011  0
0.149071 -0.324401  0
0.195659 -0.276005  0
0.230221 -0.221481  0
0.252138 -0.165744  0
0.261009 -0.10921  0
0.260763 -0.0632513  0
0.260091 -0.0280651  0
0.264926 0.0044111  0
0.265979 0.0585686  0
0.251322 0.114226  0
0.228575 0.15203  0
0.20183 0.19065  0
0.171089 0.213179  0
0.139039 0.22691  0
0.105829 0.228692  0
0.073878 0.223839  0
0.0432132 0.217056  0
0.0126261 0.21238  0
-0.0184553 0.210952  0
-0.0488585 0.211513  0
-0.0779563 0.213851  0
-0.107145 0.216622  0
-0.139161 0.217013  0
-0.175881 0.20896  0
-0.216529 0.187596  0
-0.253037 0.145051  0
-0.282186 0.0994353  0
-0.30493 0.0424324  0
-0.315864 -0.0232851  0
-0.312039 -0.0907418  0
-0.294348 -0.151656  0
-0.265719 -0.199308  0
-0.227042 -0.229456  0
-0.18281 -0.229584  0
-0.139916 -0.209905  0
-0.0991957 -0.180682  0
-0.0590723 -0.150917  0
-0.0194868 -0.129734  0
0.0350781 -0.444044  0
0.103318 -0.423136  0
0.164497 -0.378413  0
0.215942 -0.319759  0
0.251764 -0.247847  0
0.266385 -0.175653  0
0.263352 -0.104875  0
0.251622 -0.0553447  0
0.2438 -0.0272124  0
0.249597 -0.00680838  0
0.253938 0.0646602  0
0.2351 0.141895  0
0.20726 0.175214  0
0.173057 0.228683  0
0.140996 0.238217  0
0.113305 0.261887  0
0.0779459 0.262559  0
0.045809 0.254336  0
0.0191572 0.244153  0
-0.00333257 0.238636  0
-0.0241744 0.236895  0
-0.0441543 0.236229  0
-0.0642485 0.238602  0
-0.0865261 0.24361  0
-0.116283 0.252068  0
-0.157817 0.252428  0
-0.215342 0.242569  0
-0.262573 0.174083  0
-0.293189 0.130434  0
-0.321402 0.0626556  0
-0.333612 -0.0200993  0
-0.3289 -0.102199  0
-0.314195 -0.172329  0
-0.295537 -0.225655  0
-0.26661 -0.270445  0
-0.221264 -0.277901  0
-0.171443 -0.254031  0
-0.123312 -0.225134  0
-0.0735905 -0.196034  0
-0.024217 -0.1733  0
0.037185 -0.516163  0
0.105182 -0.486978  0
0.160605 -0.43091  0
0.215398 -0.373238  0
0.246879 -0.261476  0
0.241541 -0.171177  0
0.228146 -0.0927933  0
0.215461 -0.0428791  0
0.205262 -0.0215262  0
0.198014 -0.0109131  0
0.198495 0.064075  0
0.204087 0.155858  0
0.194363 0.198946  0
0.12744 0.306209  0
0.0880318 0.232362  0
0.0774218 0.306315  0
0.0281591 0.303025  0
-0.00874627 0.283185  0
-0.0260901 0.259573  0
-0.0273258 0.247215  0
-0.0213774 0.243482  0
-0.0152881 0.243804  0
-0.014742 0.250845  0
-0.0213793 0.26055  0
-0.0464043 0.290177  0
-0.0900529 0.299767  0
-0.187755 0.350723  0
-0.250917 0.176585  0
-0.26036 0.168187  0
-0.289973 0.0828577  0
-0.295642 -0.022291  0
-0.288011 -0.112219  0
-0.283727 -0.181167  0
-0.285782 -0.233288  0
-0.289835 -0.287554  0
-0.260559 -0.335211  0
-0.206803 -0.300027  0
-0.152482 -0.281319  0
-0.0892222 -0.252559  0
-0.0288591 -0.226241  0
0.0285254 -0.581803  0
0.0733456 -0.534018  0
0.0992137 -0.46503  0
0.108787 -0.403353  0
0.129364 -0.333065  0
0.153171 -0.0822685  0
0.164352 -0.043019  0
0.18107 -0.0184744  0
0.190754 -0.00862874  0
0.159078 -0.00396727  0
0.117665 0.0303078  0
0.128993 0.0768627  0
0.0905881 0.105402  0
0.0773656 0.289024  0
0.122697 0.216772  0
0.0895914 0.365755  0
0.00830864 0.374333  0
-0.0529862 0.310348  0
-0.0611262 0.258163  0
-0.0418091 0.230812  0
-0.00650103 0.218897  0
0.0303284 0.225739  0
0.0492002 0.249759  0
0.0571172 0.260621  0
0.0155633 0.356882  0
-0.0455296 0.337934  0
-0.126659 0.49152  0
-0.193156 0.165577  0
-0.188642 0.17714  0
-0.182762 0.0459774  0
-0.191454 -0.0128596  0
-0.210246 -0.0582104  0
-0.226362 -0.0906247  0
-0.233587 -0.115576  0
-0.233578 -0.325986  0
-0.233724 -0.366333  0
-0.220075 -0.336174  0
-0.170973 -0.348392  0
-0.0991463 -0.320301  0
-0.0313862 -0.286352  0
-0.00148259 -0.305164  0
0.00548272 -0.275156  0
0.0257338 -0.237302  0
0.073162 -0.201677  0
0.0543935 -0.201677  0
0 0  0
0 0  0
0 0  0
0 0  0
0 0  0
0 0  0
0 0  0
0 0  0
0.0613484 0.108386  0
0.0316526 0.108386  0
-0.0119144 0.41072  0
0.0355627 0.422579  0
0.0286503 0.330445  0
0.00261818 0.272372  0
-0.0166218 0.21666  0
0.01364 0.167681  0
0.0634875 0.190546  0
0.0607678 0.268999  0
0.0385827 0.25578  0
0.0292305 0.329561  0
-0.122867 0.176283  0
-0.0331645 0.279008  0
0.00306348 0.0827887  0
-0.096578 0.0827887  0
0 0  0
0 0  0
0 0  0
0 0  0
0 0  0
-0.116862 -0.183167  0
-0.241979 -0.183167  0
-0.185975 -0.3668  0
-0.121714 -0.383777  0
-0.0926786 -0.385644  0
-0.0318216 -0.349492  0
0 0  0
0 0  0
0 0  0
0 0  0
0 0  0
0 0  0
0 0  0
0 0  0
0 0  0
0 0  0
0 0  0
0 0  0
0 0  0
0 0  0
0 0  0
0.0177813 0.211289  0
0.0781733 0.211289  0
0.0941938 0.168679  0
0.0629067 0.145746  0
0.0533867 0.177074  0
0.0485637 0.137367  0
0.0485637 0.171148  0
0.0612751 0.231166  0
0.0562846 0.12789  0
0.0192913 0.12789  0
0 0  0
0 0  0
0 0  0
0 0  0
0 0  0
0 0  0
0 0  0
0 0  0
0 0  0
0 0  0
0 0  0
-0.060857 -0.191888  0
-0.106263 -0.191888  0
-0.09391 -0.20734  0
-0.0485042 -0.190657  0
0 0  0
0 0  0
0 0  0
0 0  0
0 0  0
0 0  0
0 0  0
0 0  0
0 0  0
0 0  0
0 0  0
0 0  0
0 0  0
0 0  0
0 0  0
0 0  0
0 0  0
0 0  0
0 0  0
0.0242819 0.0686835  0
0.0316735 0.0686835  0
0.0316735 0.0855738  0
0.0242819 0.0855738  0
0 0  0
0 0  0
0 0  0
0 0  0
0 0  0
0 0  0
0 0  0
0 0  0
0 0  0
0 0  0
0 0  0
0 0  0
0 0  0
0 0  0
0 0  0
0 0  0
0 0  0
0 0  0
0 0  0
0 0  0
0 0  0
0 0  0
0 0  0
0 0  0
0 0  0
0 0  0
0 0  0
0 0  0
0 0  0
0 0  0
0 0  0
0 0  0
0 0  0
0 0  0
0 0  0
0 0  0
0 0  0
0 0  0
0 0  0
0 0  0
0 0  0
0 0  0
0 0  0
0 0  0
0 0  0
0 0  0
0 0  0
0 0  0
0 0  0
0 0  0
0 0  0
0 0  0
0 0  0
0 0  0
0 0  0
0 0  0
0 0  0
0 0  0
0 0  0
0 0  0
0 0  0
0 0  0
0 0  0
0 0  0
0 0  0
0 0  0
0 0  0
0 0  0
0 0  0
0 0  0
0 0  0
0 0  0
0 0  0
0 0  0
0 0  0
0 0  0
0 0  0
0 0  0
0 0  0
0 0  0
0 0  0
0 0  0
0 0  0
0 0  0
0 0  0
0 0  0
0 0  0
0 0  0
0 0  0
0 0  0
0 0  0
0 0  0
0 0  0
0 0  0
0 0  0
0 0  0
0 0  0
0 0  0
0 0  0
0 0  0
0 0  0
0 0  0
0 0  0
0 0  0
0 0  0
0 0  0
0 0  0
0 0  0
0 0  0
0 0  0
0 0  0
0 0  0
0 0  0
0 0  0
0 0  0
0 0  0
0 0  0
0 0  0
0 0  0
0 0  0
0 0  0
0 0  0
0 0  0
0 0  0
0 0  0
0 0  0
0 0  0
0 0  0
0 0  0
0 0  0
0 0  0
0 0  0
0 0  0
0 0  0
0 0  0
0 0  0
0 0  0
0 0  0
0 0  0
0 0  0
0 0  0
0 0  0
0 0  0
0 0  0
0 0  0
0 0  0
0 0  0
0 0  0
0 0  0
0 0  0
0 0  0
0 0  0
0 0  0
0 0  0
0 0  0
0 0  0
0 0  0
0 0  0
0 0  0
0 0  0
0 0  0
0 0  0
0 0  0
0 0  0
0 0  0
0 0  0
0 0  0
0 0  0
0 0  0
0 0  0
0 0  0
0 0  0
0 0  0
0 0  0
0 0  0
0 0  0
0 0  0
0 0  0
0 0  0
0 0  0
0 0  0
0 0  0
0 0  0
0 0  0
0 0  0
0 0  0
0 0  0
0 0  0
0 0  0
0 0  0
0 0  0
0 0  0
0 0  0
0 0  0
0 0  0
0 0  0
0 0  0
0 0  0
0 0  0
0 0  0
0 0  0
0 0  0
0 0  0
0 0  0
0 0  0
0 0  0
0 0  0
0 0  0
0 0  0
0 0  0
0 0  0
0 0  0
0 0  0
0 0  0
0 0  0
0 0  0
0 0  0
0 0  0
0 0  0
0 0  0
0 0  0
0 0  0
0 0  0
0 0  0
0 0  0
0 0  0
0 0  0
0 0  0
0 0  0
0 0  0
0 0  0
0 0  0
0 0  0
0 0  0
0 0  0
0 0  0
0 0  0
0 0  0
0 0  0
0 0  0
0 0  0
0 0  0
0 0  0
0 0  0
0 0  0
0 0  0
0 0  0
0 0  0
0 0  0
0 0  0
0 0  0
0 0  0
0 0  0
0 0  0
0 0  0
0 0  0
0 0  0
0 0  0
0 0  0
0 0  0
0 0  0
0 0  0
0 0  0
0 0  0
0 0  0
0 0  0
0 0  0
0 0  0
0 0  0
0 0  0
0 0  0
0 0  0
0 0  0
0 0  0
0 0  0
0 0  0
0 0  0
0 0  0
0 0  0
0 0  0
0 0  0
0 0  0
0 0  0
0 0  0
0 0  0
0 0  0
0 0  0
0 0  0
0 0  0
0 0  0
0 0  0
0 0  0
0 0  0
0 0  0
0 0  0
0 0  0
0 0  0
0 0  0
0 0  0
0 0  0
0 0  0
0 0  0
0 0  0
0 0  0
0 0  0
0 0  0
0 0  0
0 0  0
0 0  0
0 0  0
0 0  0
0 0  0
0 0  0
0 0  0
0 0  0
0 0  0
0 0  0
0 0  0
0 0  0
0 0  0
0 0  0
0 0  0
0 0  0
0 0  0
0 0  0
0 0  0
0 0  0
0 0  0
0 0  0
0 0  0
0 0  0
0 0  0
0 0  0
0 0  0
0 0  0
0 0  0
0 0  0
0 0  0
0 0  0
0 0  0
0 0  0
0 0  0
0 0  0
0 0  0
0 0  0
0 0  0
0 0  0
0 0  0
0 0  0
0 0  0
0 0  0
0 0  0
0 0  0
0 0  0
0 0  0
0 0  0
0 0  0
0 0  0
0 0  0
0 0  0
0 0  0
0 0  0
0 0  0
0 0  0
0 0  0
0 0  0
0 0  0
0 0  0
0 0  0
0 0  0
0 0  0
0 0  0
0 0  0
0 0  0
0 0  0
0 0  0
0 0  0
0 0  0
0 0  0
0 0  0
0 0  0
0 0  0
0 0  0
0 0  0
0 0  0
0 0  0
0 0  0
0 0  0
0 0  0
0 0  0
0 0  0
0 0  0
0 0  0
0 0  0
0 0  0
0 0  0
0 0  0
0 0  0
0 0  0
0 0  0
0 0  0
0 0  0
0 0  0
0 0  0
0 0  0
0 0  0
0 0  0
0 0  0
0 0  0
0 0  0
0 0  0
0 0  0
0 0  0
0 0  0
0 0  0
0 0  0
0 0  0
0 0  0
0 0  0
0 0  0
0 0  0
0 0  0
0 0  0
0 0  0
0 0  0
0 0  0
0 0  0
0 0  0
0 0  0
0 0  0
0 0  0
0 0  0
0 0  0
0 0  0
0 0  0
0 0  0
0 0  0
0 0  0
0 0  0
0 0  0
0 0  0
0 0  0
0 0  0
0 0  0
0 0  0
0 0  0
0 0  0
0 0  0
0 0  0
0 0  0
0 0  0
0 0  0
0 0  0
0 0  0
0 0  0
0 0  0
0 0  0
0 0  0
0 0  0
0 0  0
0 0  0
0 0  0
0 0  0
0 0  0
0 0  0
0 0  0
0 0  0
0 0  0
0 0  0
0 0  0
0 0  0
0 0  0
0 0  0
0 0  0
0 0  0
0 0  0
0 0  0
0 0  0
0 0  0
0 0  0
0 0  0
0 0  0
0 0  0
0 0  0
0 0  0
0 0  0
0 0  0
0 0  0
0 0  0
0 0  0
0 0  0
0 0  0
0 0  0
0 0  0
0 0  0
0 0  0
0 0  0

SCALARS pressure double 1
LOOKUP_TABLE default
2.04419
2.04378
2.04287
2.04157
2.04004
2.03848
2.03707
2.03599
2.03536
2.03526
2.03572
2.03671
2.03814
2.03991
2.04186
2.04387
2.04578
2.04747
2.04885
2.04984
2.05039
2.05046
2.05003
2.04918
2.04796
2.04643
2.04471
2.04289
2.04107
2.03933
2.03774
2.03631
2.03504
2.03389
2.03283
2.03184
2.03095
2.03022
2.02971
2.02946
1.85185
1.85142
1.85046
1.84908
1.84747
1.84583
1.84435
1.84322
1.84256
1.84245
1.84293
1.84396
1.84546
1.84731
1.84936
1.85146
1.85346
1.85523
1.85666
1.8577
1.85829
1.85837
1.85793
1.85706
1.8558
1.85423
1.85246
1.85057
1.84869
1.8469
1.84527
1.8438
1.8425
1.84132
1.84025
1.83925
1.83837
1.83766
1.83718
1.83695
1.66715
1.66666
1.66558
1.66405
1.66226
1.66045
1.65882
1.65757
1.65684
1.65672
1.65724
1.65838
1.66002
1.66205
1.6643
1.66658
1.66876
1.67068
1.67225
1.67337
1.67402
1.67413
1.67368
1.67277
1.67145
1.66979
1.66789
1.66589
1.66389
1.662
1.66027
1.65874
1.65737
1.65616
1.65506
1.65407
1.65321
1.65254
1.65211
1.6519
1.49004
1.48945
1.48818
1.48639
1.48432
1.48222
1.48035
1.47891
1.47808
1.47795
1.47855
1.47985
1.48173
1.48405
1.4866
1.4892
1.49166
1.49383
1.49559
1.49686
1.49759
1.49773
1.49728
1.4963
1.49486
1.49305
1.49097
1.48877
1.48658
1.48452
1.48266
1.48101
1.47957
1.47831
1.4772
1.47623
1.47543
1.47485
1.4745
1.47434
1.32046
1.31973
1.31818
1.316
1.3135
1.31098
1.30875
1.30706
1.30609
1.30594
1.30666
1.30821
1.31045
1.31319
1.3162
1.31926
1.32214
1.32466
1.3267
1.32817
1.32903
1.3292
1.32872
1.32764
1.32602
1.32397
1.32162
1.31912
1.31664
1.31433
1.31228
1.31049
1.30896
1.30767
1.30657
1.30568
1.30501
1.30458
1.30438
1.3043
1.15834
1.15741
1.15544
1.15271
1.14959
1.14648
1.14376
1.14171
1.14056
1.14041
1.14132
1.14324
1.14598
1.14933
1.153
1.1567
1.16017
1.1632
1.16562
1.16736
1.16837
1.16857
1.16801
1.16676
1.16488
1.16248
1.15972
1.15678
1.15387
1.1512
1.14889
1.14693
1.14532
1.14403
1.14303
1.14231
1.14189
1.14175
1.14179
1.14186
1.00354
1.00232
0.999769
0.99626
0.992286
0.988371
0.98498
0.982475
0.981098
0.980969
0.98216
0.984573
0.988019
0.992217
0.996815
1.00144
1.00574
1.00945
1.01239
1.01448
1.01567
1.01586
1.01515
1.01363
1.01136
1.00845
1.00508
1.00149
0.997974
0.994798
0.992145
0.989987
0.988324
0.987119
0.986339
0.985972
0.986002
0.986343
0.9868
0.987108
0.855851
0.854238
0.850886
0.846297
0.84115
0.836155
0.8319
0.828815
0.827173
0.827102
0.828665
0.831751
0.836149
0.841527
0.847428
0.853337
0.858791
0.863444
0.867085
0.869615
0.871005
0.87112
0.870159
0.868204
0.865343
0.861694
0.857443
0.852894
0.848463
0.844559
0.841452
0.83908
0.837437
0.836474
0.836147
0.836429
0.837246
0.838397
0.839524
0.840206
0.714986
0.712854
0.708415
0.702346
0.695607
0.689205
0.683876
0.680095
0.678152
0.678178
0.680206
0.684134
0.689777
0.696779
0.704523
0.712258
0.719322
0.72525
0.729797
0.732876
0.734455
0.734395
0.732999
0.730385
0.726667
0.721956
0.716419
0.710416
0.704607
0.699641
0.69592
0.693333
0.691851
0.691394
0.691908
0.693336
0.695483
0.697951
0.700135
0.701388
0.58058
0.577792
0.571921
0.563832
0.554921
0.546758
0.540198
0.535668
0.533409
0.533547
0.536057
0.54093
0.548113
0.557332
0.567719
0.578064
0.587367
0.594977
0.600648
0.604361
0.606081
0.605703
0.603631
0.600051
0.595128
0.588948
0.581557
0.573294
0.565323
0.558782
0.554192
0.551408
0.550317
0.550787
0.552765
0.556167
0.560525
0.565087
0.568887
0.570984
0.452231
0.448674
0.440975
0.430103
0.418092
0.407885
0.400181
0.395068
0.392568
0.392743
0.39554
0.401264
0.410185
0.422401
0.436675
0.450764
0.463144
0.472856
0.479775
0.48412
0.485893
0.485046
0.482017
0.477094
0.470549
0.46248
0.452552
0.44062
0.429088
0.420234
0.414374
0.411425
0.411045
0.413009
0.417358
0.424157
0.432137
0.439953
0.446135
0.449414
0.329493
0.325153
0.315274
0.3005
0.283408
0.271355
0.263307
0.258367
0.255955
0.255883
0.258252
0.264358
0.274964
0.291139
0.311464
0.330782
0.34731
0.359374
0.367383
0.372164
0.37392
0.37254
0.368267
0.361541
0.35288
0.342732
0.329821
0.311618
0.293835
0.281896
0.274468
0.271418
0.272068
0.275945
0.283528
0.296353
0.31017
0.322876
0.332378
0.337172
0.211682
0.20697
0.195192
0.175097
0.147082
0.135842
0.129855
0.126764
0.125117
0.124289
0.12464
0.129863
0.141262
0.162222
0.193618
0.219286
0.241405
0.255475
0.263893
0.26868
0.270694
0.268891
0.26296
0.253681
0.241922
0.230233
0.215642
0.186306
0.156518
0.142466
0.134144
0.13157
0.133318
0.138067
0.147636
0.172032
0.19498
0.214579
0.228294
0.234728
0.0975936
0.0947705
0.0845433
0.0595673
-0.000991736
0.0036236
0.00349849
0.0030359
0.00215079
0.00149086
-0.0018224
-0.00119544
0.00568102
0.0278575
0.0883071
0.117331
0.14848
0.16229
0.169698
0.174187
0.177947
0.176032
0.167396
0.153837
0.135318
0.123343
0.113802
0.0667322
0.00982583
0.0047466
-0.00177072
-0.00216514
-3.84282e-05
0.00118096
0.000645329
0.052142
0.0883058
0.116121
0.134633
0.142279
-0.0148472
-0.00814069
-0.00462484
-0.00547707
0
0
0
0
0
0
0
0
0
0
0.0192671
0.0160049
0.0744185
0.0789036
0.0845177
0.0875055
0.0980857
0.0969491
0.0833049
0.0628581
0.023489
0.00609886
0.0351753
-0.0354062
0
0
0
0
0
0
0
-0.0472899
-0.00607092
0.0277835
0.0522568
0.0593993
0
0
0
0
0
0
0
0
0
0
0
0
0
0
0
0
0.0504412
0.00272687
0.010173
-0.000384748
0.0354235
0.0354631
0.0114876
-0.00437761
0
0
0
0
0
0
0
0
0
0
0
0
0
-0.0499298
-0.0144751
-0.0157955
0
0
0
0
0
0
0
0
0
0
0
0
0
0
0
0
0
0
0
0
0.0139093
0.00226444
0
0
0
0
0
0
0
0
0
0
0
0
0
0
0
0
0
0
0
0
0
0
0
0
0
0
0
0
0
0
0
0
0
0
0
0
0
0
0
0
0
0
0
0
0
0
0
0
0
0
0
0
0
0
0
0
0
0
0
0
0
0
0
0
0
0
0
0
0
0
0
0
0
0
0
0
0
0
0
0
0
0
0
0
0
0
0
0
0
0
0
0
0
0
0
0
0
0
0
0
0
0
0
0
0
0
0
0
0
0
0
0
0
0
0
0
0
0
0
0
0
0
0
0
0
0
0
0
0
0
0
0
0
0
0
0
0
0
0
0
0
0
0
0
0
0
0
0
0
0
0
0
0
0
0
0
0
0
0
0
0
0
0
0
0
0
0
0
0
0
0
0
0
0
0
0
0
0
0
0
0
0
0
0
0
0
0
0
0
0
0
0
0
0
0
0
0
0
0
0
0
0
0
0
0
0
0
0
0
0
0
0
0
0
0
0
0
0
0
0
0
0
0
0
0
0
0
0
0
0
0
0
0
0
0
0
0
0
0
0
0
0
0
0
0
0
0
0
0
0
0
0
0
0
0
0
0
0
0
0
0
0
0
0
0
0
0
0
0
0
0
0
0
0
0
0
0
0
0
0
0
0
0
0
0
0
0
0
0
0
0
0
0
0
0
0
0
0
0
0
0
0
0
0
0
0
0
0
0
0
0
0
0
0
0
0
0
0
0
0
0
0
0
0
0
0
0
0
0
0
0
0
0
0
0
0
0
0
0
0
0
0
0
0
0
0
0
0
0
0
0
0
0
0
0
0
0
0
0
0
0
0
0
0
0
0
0
0
0
0
0
0
0
0
0
0
0
0
0
0
0
0
0
0
0
0
0
0
0
0
0
0
0
0
0
0
0
0
0
0
0
0
0
0
0
0
0
0
0
0
0
0
0
0
0
0
0
0
0
0
0
0
0
0
0
0
0
0
0
0
0
0
0
0
0
0
0
0
0
0
0
0
0
0
0
0
0
0
0
0
0
0
0
0
0
0
0
0
0
0
0
0
0
0
0
0
0
0
0
0
0
0
0
0
0
0
0
0
0
0
0
0
0
0
0
0
0
0
0
0
0
0
0
0
0
0
0
0
0
0
0
0
0
0
0
0
0
0
0
0
0
0
0
0
0
0
0
0
0
0
0
0
0
0
0
0
0
0
0
0
0
0
0
0
0
0
0
0
SCALARS rhs double 1
LOOKUP_TABLE default
-4.70663
-4.75969
-4.75926
-4.75765
-4.75554
-4.75329
-4.75125
-4.74966
-4.74871
-4.7484
-4.74871
-4.74948
-4.75056
-4.75179
-4.753
-4.75406
-4.75487
-4.7554
-4.75566
-4.75571
-4.75623
-4.75645
-4.75465
-4.75395
-4.75305
-4.75201
-4.75096
-4.75006
-4.74949
-4.74943
-4.75003
-4.75125
-4.7529
-4.75446
-4.75523
-4.75463
-4.75275
-4.75062
-4.7494
-4.74916
0.240638
0.190223
0.19143
0.193633
0.196176
0.198742
0.201044
0.202853
0.204031
0.20468
0.20459
0.203836
0.202677
0.201315
0.199952
0.198769
0.197872
0.19731
0.197054
0.197043
0.196492
0.196405
0.198241
0.199045
0.200088
0.201309
0.202568
0.203666
0.204388
0.204445
0.203803
0.202741
0.201358
0.200134
0.199696
0.200507
0.202383
0.204329
0.205343
0.205503
0.234727
0.186364
0.187697
0.190022
0.192689
0.195363
0.197761
0.199654
0.200903
0.201774
0.201805
0.201108
0.20001
0.198717
0.197446
0.196377
0.195627
0.195225
0.195117
0.195206
0.194513
0.19453
0.196173
0.196799
0.197675
0.198756
0.199906
0.200921
0.201577
0.201512
0.200689
0.199664
0.198426
0.197499
0.197503
0.198804
0.201047
0.203107
0.204025
0.20408
0.227155
0.181155
0.182691
0.185226
0.188103
0.19097
0.193528
0.195558
0.196922
0.198121
0.198289
0.19768
0.19668
0.195507
0.194393
0.193531
0.193041
0.192924
0.19308
0.193348
0.192435
0.192618
0.193906
0.194211
0.194779
0.195599
0.196542
0.197396
0.19793
0.197709
0.196599
0.19564
0.194643
0.194194
0.194891
0.196944
0.19974
0.201973
0.202755
0.202688
0.217138
0.17375
0.175619
0.178527
0.18177
0.184962
0.187788
0.190026
0.191554
0.193211
0.193501
0.193002
0.192132
0.191136
0.190271
0.18975
0.189682
0.190026
0.190604
0.19116
0.189946
0.190343
0.191065
0.190842
0.19089
0.19126
0.191842
0.192421
0.192748
0.192335
0.190765
0.189927
0.189319
0.189602
0.191331
0.194474
0.198054
0.200526
0.201121
0.200915
0.203931
0.163304
0.165769
0.169341
0.173233
0.176987
0.18026
0.182821
0.184555
0.186776
0.187115
0.186701
0.185972
0.185217
0.184736
0.184754
0.185342
0.186379
0.187575
0.188545
0.186918
0.187577
0.187473
0.186437
0.185651
0.185269
0.185241
0.185355
0.185343
0.184683
0.182372
0.181736
0.18174
0.18314
0.186404
0.191134
0.19583
0.198629
0.198946
0.198573
0.186555
0.148758
0.152289
0.157066
0.162121
0.166875
0.170922
0.173999
0.175974
0.17869
0.178862
0.178397
0.177747
0.177279
0.17736
0.178195
0.179747
0.181743
0.183733
0.185201
0.182906
0.184027
0.182817
0.180625
0.178564
0.176967
0.17592
0.175256
0.174673
0.17367
0.170141
0.169801
0.170741
0.173844
0.179429
0.186527
0.19285
0.196085
0.195944
0.195343
0.164113
0.129136
0.134502
0.14141
0.14853
0.155042
0.160473
0.164459
0.166744
0.169408
0.16895
0.168057
0.167265
0.167017
0.167831
0.169805
0.172644
0.175786
0.178589
0.180465
0.176903
0.179163
0.176663
0.173036
0.169165
0.165685
0.162989
0.161048
0.159451
0.157873
0.152265
0.15222
0.154494
0.160156
0.169268
0.179943
0.188654
0.192448
0.191535
0.190613
0.136444
0.104086
0.112246
0.122648
0.13323
0.142701
0.150675
0.156542
0.159511
0.160771
0.158818
0.156832
0.15552
0.155051
0.156525
0.159758
0.163983
0.168139
0.171368
0.172768
0.167993
0.171902
0.168657
0.163662
0.157533
0.151365
0.146138
0.142237
0.138769
0.136049
0.126804
0.126657
0.130521
0.139762
0.154055
0.170124
0.182251
0.1867
0.184527
0.18325
0.104393
0.0737709
0.0853657
0.100951
0.116917
0.131128
0.143959
0.154196
0.159231
0.15689
0.151881
0.148301
0.146683
0.144631
0.145834
0.149377
0.154279
0.158676
0.16139
0.16044
0.155485
0.161655
0.159194
0.153614
0.145228
0.13567
0.126744
0.120536
0.113845
0.108399
0.0947305
0.0928011
0.0976229
0.110679
0.131467
0.155549
0.172226
0.177188
0.172914
0.171464
0.0682968
0.0372336
0.0524126
0.0750073
0.098923
0.121231
0.143465
0.162999
0.172849
0.164427
0.154303
0.149497
0.150838
0.144307
0.14274
0.14211
0.14508
0.148395
0.149969
0.145093
0.141988
0.151222
0.151015
0.146013
0.135839
0.122461
0.107501
0.102271
0.0918061
0.0802743
0.0709296
0.0639536
0.0664419
0.0782079
0.101732
0.136032
0.158129
0.162403
0.154175
0.153065
0.0260954
-0.00550182
0.017245
0.0458456
0.083312
0.123992
0.161823
0.189291
0.201569
0.191464
0.184137
0.171751
0.176466
0.16196
0.159291
0.143116
0.13767
0.139387
0.143038
0.13729
0.141335
0.149876
0.150291
0.144144
0.130513
0.111811
0.0807785
0.10172
0.0930281
0.0840665
0.0976372
0.0953287
0.0852977
0.0714633
0.0790128
0.112156
0.142181
0.140248
0.125029
0.125938
-0.0185946
-0.028756
0.0258991
0.0461779
0.121973
0.210514
0.246762
0.23007
0.214476
0.24665
0.297881
0.237611
0.189494
0.12259
0.169563
0.149591
0.123351
0.126769
0.141809
0.155629
0.16658
0.166405
0.159257
0.137372
0.109062
0.0659813
-0.0620898
0.129596
0.155511
0.183022
0.251085
0.258159
0.207218
0.142753