# vtk DataFile Version 4.0
Nusif Fluid VTK output
ASCII
DATASET STRUCTURED_POINTS
DIMENSIONS 40 30 1
ORIGIN 0 0 0 
SPACING 0.2 0.2 1
POINT_DATA 1200 

VECTORS velocity double
0.00852078 -0.00888482  0
0.0253037 -0.00867743  0
0.0414084 -0.0082629  0
0.0564824 -0.0076549  0
0.0701593 -0.00687158  0
0.0821118 -0.00593442  0
0.0920587 -0.00486809  0
0.0997695 -0.0037005  0
0.105071 -0.00246098  0
0.107855 -0.00118297  0
0.10808 9.66148e-05  0
0.105782 0.00133909  0
0.101076 0.0025051  0
0.0941502 0.00355716  0
0.0852654 0.0044632  0
0.0747342 0.00520079  0
0.0629034 0.00576108  0
0.0501267 0.00614624  0
0.0367402 0.00636907  0
0.0230503 0.00644671  0
0.00933589 0.00639209  0
-0.00413994 0.00620541  0
-0.0171049 0.00587795  0
-0.0292575 0.0053912  0
-0.0402628 0.00472839  0
-0.0497632 0.00388349  0
-0.0574033 0.00286556  0
-0.0628616 0.00169958  0
-0.0658796 0.000423704  0
-0.0662864 -0.000913794  0
-0.0640158 -0.00225592  0
-0.0591234 -0.00353712  0
-0.0518117 -0.00467604  0
-0.0424795 -0.00555888  0
-0.0318036 -0.00602096  0
-0.0208322 -0.00585494  0
-0.0109842 -0.00489739  0
-0.00376638 -0.00322458  0
-0.0001063 -0.00133942  0
0.000390621 -6.11984e-05  0
0.00872881 -0.0269152  0
0.025927 -0.0262804  0
0.042433 -0.02502  0
0.0578766 -0.0231755  0
0.0718833 -0.0208022  0
0.0841196 -0.0179652  0
0.0942978 -0.0147389  0
0.102182 -0.0112043  0
0.107594 -0.00745162  0
0.110417 -0.00358137  0
0.110607 0.000296573  0
0.108197 0.0040637  0
0.103301 0.00759884  0
0.0961169 0.0107863  0
0.0869198 0.013527  0
0.0760457 0.0157519  0
0.0638648 0.0174301  0
0.0507509 0.0185738  0
0.037054 0.0192285  0
0.0230809 0.0194522  0
0.00909428 0.0192861  0
-0.00466212 0.0187383  0
-0.0179326 0.0177728  0
-0.0304223 0.0163279  0
-0.0417843 0.0143455  0
-0.0516371 0.0118026  0
-0.0595958 0.00872548  0
-0.0653106 0.00519079  0
-0.0685018 0.0013171  0
-0.0689851 -0.00274475  0
-0.0666905 -0.00681938  0
-0.0616817 -0.010706  0
-0.0541791 -0.0141547  0
-0.0446054 -0.0168206  0
-0.0336632 -0.0182124  0
-0.0224177 -0.0177161  0
-0.0122857 -0.014852  0
-0.00475368 -0.00985497  0
-0.000731432 -0.00422602  0
0.000175202 -0.00041268  0
0.00915662 -0.0456411  0
0.0272006 -0.0445519  0
0.044515 -0.0424013  0
0.060703 -0.039263  0
0.0753736 -0.0352324  0
0.0881801 -0.030421  0
0.0988249 -0.0249519  0
0.107062 -0.0189594  0
0.1127 -0.0125933  0
0.115609 -0.00602011  0
0.115733 0.000574059  0
0.113095 0.00698609  0
0.107814 0.0130043  0
0.100104 0.0184242  0
0.09027 0.023069  0
0.0786925 0.0268116  0
0.0657934 0.0295995  0
0.0519958 0.0314636  0
0.0376767 0.032502  0
0.0231393 0.0328356  0
0.00861785 0.032555  0
-0.00569208 0.0316795  0
-0.0195776 0.0301311  0
-0.0327536 0.0277773  0
-0.0448492 0.0244944  0
-0.0554299 0.0202272  0
-0.0640473 0.0150166  0
-0.0702929 0.00899818  0
-0.0738402 0.00238471  0
-0.0744767 -0.00455629  0
-0.0721271 -0.0115162  0
-0.0668684 -0.0181422  0
-0.0589542 -0.0240016  0
-0.0488583 -0.0285098  0
-0.0373386 -0.0308514  0
-0.0255012 -0.030026  0
-0.0147715 -0.0252697  0
-0.00661054 -0.0169957  0
-0.00189416 -0.00768893  0
-0.000222789 -0.00139292  0
0.00981855 -0.0654704  0
0.0291659 -0.0638878  0
0.0477192 -0.0607751  0
0.0650434 -0.0562472  0
0.0807231 -0.0504479  0
0.0943975 -0.0435386  0
0.105757 -0.0356916  0
0.114538 -0.0270931  0
0.120533 -0.0179471  0
0.123587 -0.00848577  0
0.123621 0.00102576  0
0.120646 0.0102898  0
0.114779 0.0189899  0
0.106257 0.0268133  0
0.0954312 0.0334819  0
0.0827548 0.0387947  0
0.0687378 0.0426735  0
0.0538821 0.0451839  0
0.0386126 0.0465106  0
0.0232314 0.0468837  0
0.00791749 0.0464801  0
-0.00722084 0.0453406  0
-0.0220442 0.0433153  0
-0.0362883 0.0401483  0
-0.0495373 0.0356024  0
-0.0612681 0.0295647  0
-0.0709273 0.0220885  0
-0.078008 0.0133838  0
-0.0821107 0.00377965  0
-0.0829805 -0.00631539  0
-0.0805277 -0.0164312  0
-0.0748494 -0.0260365  0
-0.0662531 -0.0344904  0
-0.0552918 -0.040951  0
-0.0428149 -0.0442798  0
-0.0300057 -0.0431171  0
-0.0183228 -0.0364636  0
-0.00920732 -0.0249502  0
-0.00349311 -0.0120367  0
-0.000764878 -0.0033165  0
0.0107372 -0.0868931  0
0.0318877 -0.0847544  0
0.0521423 -0.0805674  0
0.0710144 -0.074506  0
0.0880642 -0.0667768  0
0.102917 -0.057597  0
0.115251 -0.047188  0
0.124789 -0.0357796  0
0.131295 -0.0236239  0
0.134581 -0.0110127  0
0.134528 0.00170631  0
0.13112 0.0141271  0
0.124469 0.0258051  0
0.114835 0.0362895  0
0.102636 0.0451654  0
0.088428 0.0521303  0
0.0728466 0.0570712  0
0.0565127 0.06011  0
0.0399258 0.0615732  0
0.0233884 0.0618723  0
0.00699802 0.0613283  0
-0.00927442 0.0600344  0
-0.0254078 0.0577086  0
-0.0411629 0.0538835  0
-0.0560523 0.0481346  0
-0.069417 0.0402557  0
-0.080548 0.030314  0
-0.0888014 0.0186183  0
-0.0936757 0.00564649  0
-0.0948518 -0.00801399  0
-0.0922195 -0.0216955  0
-0.0859011 -0.0346472  0
-0.0762773 -0.045979  0
-0.0640191 -0.0545613  0
-0.0501167 -0.0589281  0
-0.0358797 -0.0573941  0
-0.0228378 -0.0487901  0
-0.0124291 -0.0340259  0
-0.00543908 -0.0175429  0
-0.00141753 -0.00643789  0
0.0119435 -0.110453  0
0.0354504 -0.10766  0
0.0579043 -0.10223  0
0.0787568 -0.0944319  0
0.0975464 -0.0845568  0
0.113895 -0.072887  0
0.127481 -0.0596879  0
0.138015 -0.0452225  0
0.14523 -0.0297738  0
0.148887 -0.0136779  0
0.148805 0.00263414  0
0.144916 0.0186235  0
0.137318 0.0336853  0
0.126299 0.0471909  0
0.112349 0.0585409  0
0.0961547 0.0672852  0
0.0785143 0.0732663  0
0.0602038 0.0766868  0
0.0418309 0.0780833  0
0.0237103 0.0781472  0
0.00583947 0.0774411  0
-0.012 0.0761592  0
-0.029943 0.073785  0
-0.0477652 0.069509  0
-0.0648673 0.0626239  0
-0.0804044 0.0527903  0
-0.0934675 0.0400954  0
-0.10324 0.0249831  0
-0.109093 0.00812677  0
-0.110626 -0.00966876  0
-0.107692 -0.0274908  0
-0.100438 -0.0443088  0
-0.0893436 -0.0589207  0
-0.0752458 -0.0698611  0
-0.0593399 -0.0753221  0
-0.0431285 -0.0733334  0
-0.0282627 -0.062643  0
-0.0162004 -0.0445278  0
-0.00767117 -0.0244438  0
-0.00215804 -0.0109554  0
0.0134677 -0.136756  0
0.0399325 -0.133154  0
0.0651066 -0.126233  0
0.08837 -0.116417  0
0.109255 -0.104121  0
0.127408 -0.0897012  0
0.142529 -0.0734584  0
0.154333 -0.0556692  0
0.162529 -0.0366178  0
0.166804 -0.0166468  0
0.166868 0.00374166  0
0.16257 0.0238231  0
0.153985 0.0427889  0
0.141412 0.0598015  0
0.12541 0.0740045  0
0.106807 0.0847415  0
0.0865789 0.0918006  0
0.0656739 0.0954896  0
0.0448339 0.0966157  0
0.024422 0.0962695  0
0.00434973 0.0953833  0
-0.0158081 0.0943352  0
-0.036332 0.0921964  0
-0.0569597 0.0876673  0
-0.0769349 0.0796613  0
-0.0951979 0.0676707  0
-0.11062 0.0518164  0
-0.122201 0.0327299  0
-0.129182 0.0113268  0
-0.131064 -0.0113432  0
-0.127635 -0.0340691  0
-0.119057 -0.055453  0
-0.105933 -0.0738856  0
-0.0893263 -0.0874926  0
-0.0707168 -0.0940974  0
-0.0518813 -0.0914959  0
-0.0346514 -0.0784665  0
-0.0205309 -0.0567765  0
-0.0101825 -0.0329619  0
-0.00298205 -0.0170402  0
0.01531 -0.166439  0
0.0453212 -0.16179  0
0.0736928 -0.153021  0
0.0997316 -0.140813  0
0.123001 -0.125763  0
0.143216 -0.108313  0
0.160139 -0.0887772  0
0.173523 -0.0674256  0
0.18308 -0.0445019  0
0.188413 -0.0202592  0
0.189031 0.00478576  0
0.184637 0.0295846  0
0.17529 0.0530733  0
0.161256 0.0742401  0
0.14309 0.0918498  0
0.121763 0.104943  0
0.0984231 0.113284  0
0.0741496 0.117303  0
0.0498171 0.118093  0
0.0258943 0.117245  0
0.0022886 0.116204  0
-0.0215324 0.115611  0
-0.0458523 0.113882  0
-0.0702569 0.10913  0
-0.0938167 0.099848  0
-0.11529 0.0853341  0
-0.133358 0.065754  0
-0.146877 0.0420014  0
-0.155009 0.0152756  0
-0.157155 -0.0131592  0
-0.152974 -0.0417575  0
-0.142599 -0.0686144  0
-0.126777 -0.0915672  0
-0.106862 -0.108231  0
-0.0847178 -0.11601  0
-0.0624923 -0.112541  0
-0.0422573 -0.096782  0
-0.0255855 -0.0711484  0
-0.0130627 -0.0433559  0
-0.00391723 -0.0248869  0
0.0173733 -0.200041  0
0.0513195 -0.194006  0
0.0831644 -0.182907  0
0.112153 -0.167844  0
0.137932 -0.149672  0
0.160353 -0.128933  0
0.179284 -0.105905  0
0.194554 -0.0808464  0
0.20597 -0.0539496  0
0.213086 -0.0251565  0
0.215009 0.00525013  0
0.211174 0.0354563  0
0.201737 0.0640928  0
0.186779 0.0903229  0
0.16663 0.112192  0
0.142438 0.128233  0
0.115537 0.138347  0
0.0870211 0.143142  0
0.0578046 0.143917  0
0.0285044 0.142759  0
-0.000814557 0.14173  0
-0.0304274 0.141634  0
-0.060227 0.140093  0
-0.0895236 0.134734  0
-0.117311 0.123703  0
-0.142302 0.106052  0
-0.163056 0.0819651  0
-0.178394 0.0527522  0
-0.187574 0.0199383  0
-0.189933 -0.0152182  0
-0.18484 -0.0508718  0
-0.17223 -0.0843872  0
-0.152965 -0.112784  0
-0.128775 -0.133023  0
-0.102071 -0.14197  0
-0.0755338 -0.137247  0
-0.0515407 -0.118206  0
-0.0317144 -0.0881228  0
-0.0165278 -0.0559912  0
-0.00503545 -0.0347899  0
0.0193715 -0.237719  0
0.0571099 -0.229892  0
0.0922649 -0.215915  0
0.124032 -0.197489  0
0.152184 -0.175858  0
0.176797 -0.151684  0
0.197842 -0.125032  0
0.215152 -0.0962017  0
0.228845 -0.0656049  0
0.238715 -0.0323877  0
0.242922 0.00445531  0
0.240356 0.0407573  0
0.231986 0.0747047  0
0.217274 0.107487  0
0.195555 0.135002  0
0.1685 0.154777  0
0.137826 0.167486  0
0.104398 0.174058  0
0.0689276 0.175801  0
0.032086 0.175131  0
-0.00566255 0.174541  0
-0.0435882 0.174477  0
-0.0805446 0.172119  0
-0.115573 0.165144  0
-0.147917 0.151533  0
-0.176453 0.129854  0
-0.199649 0.100215  0
-0.21649 0.0647799  0
-0.226772 0.0254676  0
-0.229854 -0.0172119  0
-0.224367 -0.0613619  0
-0.209488 -0.103292  0
-0.185978 -0.138559  0
-0.156122 -0.1632  0
-0.123326 -0.173199  0
-0.0912643 -0.166522  0
-0.062733 -0.143361  0
-0.0392079 -0.108225  0
-0.0208206 -0.0713677  0
-0.00642674 -0.047205  0
0.0208267 -0.278864  0
0.0613954 -0.268951  0
0.0991393 -0.251658  0
0.133139 -0.229419  0
0.163243 -0.204092  0
0.18996 -0.176687  0
0.213152 -0.146172  0
0.231997 -0.113121  0
0.247552 -0.0798308  0
0.261246 -0.0436214  0
0.268296 0.0025359  0
0.265757 0.0458915  0
0.259409 0.0824042  0
0.24715 0.12487  0
0.224214 0.160378  0
0.194364 0.184402  0
0.160301 0.200696  0
0.122141 0.21054  0
0.0801662 0.214871  0
0.0348415 0.216339  0
-0.0128745 0.21691  0
-0.0602954 0.215565  0
-0.10469 0.21049  0
-0.145187 0.200404  0
-0.181737 0.183271  0
-0.213526 0.156535  0
-0.238752 0.120041  0
-0.256922 0.0780464  0
-0.269293 0.0329368  0
-0.275316 -0.0174828  0
-0.271847 -0.0719471  0
-0.255837 -0.125475  0
-0.227127 -0.170467  0
-0.189095 -0.201068  0
-0.147492 -0.211625  0
-0.108159 -0.201391  0
-0.074624 -0.172461  0
-0.0475626 -0.131616  0
-0.0258804 -0.0899529  0
-0.00810817 -0.0626947  0
0.0213463 -0.321999  0
0.0632614 -0.310217  0
0.102716 -0.289501  0
0.138303 -0.263077  0
0.169571 -0.233715  0
0.198483 -0.204592  0
0.223662 -0.168527  0
0.241072 -0.128899  0
0.255544 -0.0959553  0
0.275828 -0.0633537  0
0.285277 0.00390281  0
0.271612 0.0588704  0
0.265123 0.0803891  0
0.261506 0.140873  0
0.238274 0.188647  0
0.206199 0.216171  0
0.170195 0.237127  0
0.128617 0.251983  0
0.0823396 0.2598  0
0.0319714 0.265216  0
-0.021936 0.267764  0
-0.074992 0.263291  0
-0.123543 0.25381  0
-0.167231 0.239364  0
-0.20684 0.218556  0
-0.24169 0.185971  0
-0.268812 0.141044  0
-0.288798 0.0933043  0
-0.305869 0.0452395  0
-0.319506 -0.0119945  0
-0.323299 -0.0789467  0
-0.309752 -0.149865  0
-0.274986 -0.21143  0
-0.224489 -0.250527  0
-0.170113 -0.260038  0
-0.12159 -0.242721  0
-0.083606 -0.20454  0
-0.0548996 -0.157201  0
-0.0311026 -0.111751  0
-0.0099613 -0.0817199  0
0.0211966 -0.365518  0
0.0638529 -0.353206  0
0.104985 -0.329013  0
0.141521 -0.297575  0
0.171496 -0.262332  0
0.203173 -0.23843  0
0.22796 -0.186473  0
0.23388 -0.136071  0
0.24037 -0.111539  0
0.275781 -0.10525  0
0.285653 0.0247036  0
0.22826 0.10734  0
0.215117 0.0497452  0
0.23909 0.149354  0
0.22337 0.217322  0
0.191535 0.249637  0
0.152836 0.276567  0
0.10662 0.298484  0
0.0594424 0.304891  0
0.015714 0.31235  0
-0.0288446 0.317208  0
-0.0733947 0.309556  0
-0.117104 0.297895  0
-0.159199 0.279156  0
-0.201932 0.259215  0
-0.243428 0.219818  0
-0.27379 0.162897  0
-0.295883 0.111757  0
-0.319471 0.0656764  0
-0.344124 0.00410304  0
-0.360193 -0.0769359  0
-0.356683 -0.170736  0
-0.318128 -0.265715  0
-0.251409 -0.315295  0
-0.183181 -0.319725  0
-0.126739 -0.28986  0
-0.0868025 -0.237195  0
-0.0599246 -0.182003  0
-0.0363616 -0.136187  0
-0.0120245 -0.104655  0
0.0215394 -0.409251  0
0.0668189 -0.399346  0
0.110837 -0.369888  0
0.144899 -0.329118  0
0.165012 -0.282671  0
0.198014 -0.284525  0
0.211716 -0.180151  0
0.192429 -0.129885  0
0.185144 -0.117792  0
0.183139 -0.133255  0
0.198646 0.0264738  0
0.218219 0.142516  0
0.218134 0.026925  0
0.219014 0.14646  0
0.219029 0.23507  0
0.177781 0.304133  0
0.113304 0.323909  0
0.0530881 0.355755  0
0.00636822 0.339692  0
-0.0107541 0.336538  0
-0.0201693 0.34512  0
-0.0337112 0.337851  0
-0.056976 0.334699  0
-0.0854628 0.311115  0
-0.138055 0.320843  0
-0.208522 0.268886  0
-0.249589 0.184419  0
-0.270401 0.132294  0
-0.292967 0.0904426  0
-0.316435 0.0266189  0
-0.335502 -0.0651814  0
-0.34527 -0.17713  0
-0.316391 -0.32763  0
-0.248021 -0.389794  0
-0.180077 -0.383187  0
-0.128343 -0.336368  0
-0.0915038 -0.269266  0
-0.067523 -0.202629  0
-0.0447857 -0.163737  0
-0.0152456 -0.132857  0
0.0228673 -0.454642  0
0.0720668 -0.450317  0
0.117851 -0.410483  0
0.134576 -0.340619  0
0.130933 -0.288516  0
0.130017 -0.311601  0
0.142576 -0.23939  0
0.16725 -0.0617847  0
0.189469 -0.0584112  0
0.119762 -0.0661095  0
0.0627934 0.00496583  0
0.208164 0.0697427  0
0.216644 0.0150206  0
0.114509 0.0712321  0
0.119561 0.119525  0
0.10238 0.346033  0
0.0920616 0.350666  0
0.0540413 0.426354  0
-0.00269084 0.371199  0
-0.0105131 0.328155  0
0.00828871 0.342311  0
0.0216668 0.339025  0
0.00324265 0.373479  0
-0.0384649 0.341269  0
-0.0562826 0.360286  0
-0.0953853 0.329903  0
-0.171165 0.0974261  0
-0.22429 0.0713359  0
-0.24058 0.0513155  0
-0.236422 0.0189496  0
-0.228978 -0.0286973  0
-0.194722 -0.0875746  0
-0.173243 -0.393121  0
-0.182576 -0.427753  0
-0.167597 -0.429043  0
-0.142692 -0.368027  0
-0.114114 -0.304363  0
-0.088546 -0.218907  0
-0.0618891 -0.198674  0
-0.021074 -0.170083  0
0.0208433 -0.499276  0
0.0577524 -0.493156  0
0.073818 -0.430353  0
0.0776876 -0.384122  0
0.117788 -0.1438  0
0.142018 -0.1558  0
0.0650086 -0.1558  0
0 0  0
0 0  0
0 0  0
0 0  0
0 0  0
0 0  0
0 0  0
0 0  0
0.0460308 0.175333  0
0.0352077 0.175333  0
0.0190004 0.426917  0
0.0596471 0.38946  0
0.0504696 0.326005  0
0.0354113 0.339846  0
0.0266198 0.336044  0
0.0237091 0.396975  0
-0.0168865 0.378031  0
-0.0568823 0.180143  0
-0.0281413 0.180143  0
0 0  0
0 0  0
0 0  0
0 0  0
0 0  0
0 0  0
-0.091288 -0.213877  0
-0.174441 -0.213877  0
-0.192498 -0.222011  0
-0.174553 -0.350717  0
-0.130418 -0.323481  0
-0.116105 -0.240582  0
-0.076711 -0.243922  0
-0.0258146 -0.217862  0
0 -0.520563  0
-0.00252539 -0.514892  0
0.0343836 -0.215176  0
0.036909 -0.215176  0
0 0  0
0 0  0
0 0  0
0 0  0
0 0  0
0 0  0
0 0  0
0 0  0
0 0  0
0 0  0
0 0  0
0 0  0
0 0  0
0.0298236 0.19473  0
0.0867857 0.19473  0
0.072336 0.167591  0
0.033525 0.172863  0
0.000995776 0.169478  0
-0.0053009 0.198488  0
0.0118545 0.198488  0
0 0  0
0 0  0
0 0  0
0 0  0
0 0  0
0 0  0
0 0  0
0 0  0
0 0  0
0 0  0
0 0  0
-0.0652091 -0.161741  0
-0.164712 -0.161741  0
-0.143344 -0.127447  0
-0.0438418 -0.256563  0
0 -0.244122  0
0 -0.260282  0
0 -0.260282  0
0 0  0
0 0  0
0 0  0
0 0  0
0 0  0
0 0  0
0 0  0
0 0  0
0 0  0
0 0  0
0 0  0
0 0  0
0 0  0
0 0  0
0 0  0
0 0  0
0 0  0
0 0  0
0 0  0
0 0  0
0 0  0
0 0  0
0 0  0
0 0  0
0 0  0
0 0  0
0 0  0
0 0  0
0 0  0
0 0  0
0 0  0
0 0  0
0 0  0
0 0  0
0 0  0
0 0  0
0 -0.122061  0
0 -0.122061  0
0 0  0
0 0  0
0 0  0
0 0  0
0 0  0
0 0  0
0 0  0
0 0  0
0 0  0
0 0  0
0 0  0
0 0  0
0 0  0
0 0  0
0 0  0
0 0  0
0 0  0
0 0  0
0 0  0
0 0  0
0 0  0
0 0  0
0 0  0
0 0  0
0 0  0
0 0  0
0 0  0
0 0  0
0 0  0
0 0  0
0 0  0
0 0  0
0 0  0
0 0  0
0 0  0
0 0  0
0 0  0
0 0  0
0 0  0
0 0  0
0 0  0
0 0  0
0 0  0
0 0  0
0 0  0
0 0  0
0 0  0
0 0  0
0 0  0
0 0  0
0 0  0
0 0  0
0 0  0
0 0  0
0 0  0
0 0  0
0 0  0
0 0  0
0 0  0
0 0  0
0 0  0
0 0  0
0 0  0
0 0  0
0 0  0
0 0  0
0 0  0
0 0  0
0 0  0
0 0  0
0 0  0
0 0  0
0 0  0
0 0  0
0 0  0
0 0  0
0 0  0
0 0  0
0 0  0
0 0  0
0 0  0
0 0  0
0 0  0
0 0  0
0 0  0
0 0  0
0 0  0
0 0  0
0 0  0
0 0  0
0 0  0
0 0  0
0 0  0
0 0  0
0 0  0
0 0  0
0 0  0
0 0  0
0 0  0
0 0  0
0 0  0
0 0  0
0 0  0
0 0  0
0 0  0
0 0  0
0 0  0
0 0  0
0 0  0
0 0  0
0 0  0
0 0  0
0 0  0
0 0  0
0 0  0
0 0  0
0 0  0
0 0  0
0 0  0
0 0  0
0 0  0
0 0  0
0 0  0
0 0  0
0 0  0
0 0  0
0 0  0
0 0  0
0 0  0
0 0  0
0 0  0
0 0  0
0 0  0
0 0  0
0 0  0
0 0  0
0 0  0
0 0  0
0 0  0
0 0  0
0 0  0
0 0  0
0 0  0
0 0  0
0 0  0
0 0  0
0 0  0
0 0  0
0 0  0
0 0  0
0 0  0
0 0  0
0 0  0
0 0  0
0 0  0
0 0  0
0 0  0
0 0  0
0 0  0
0 0  0
0 0  0
0 0  0
0 0  0
0 0  0
0 0  0
0 0  0
0 0  0
0 0  0
0 0  0
0 0  0
0 0  0
0 0  0
0 0  0
0 0  0
0 0  0
0 0  0
0 0  0
0 0  0
0 0  0
0 0  0
0 0  0
0 0  0
0 0  0
0 0  0
0 0  0
0 0  0
0 0  0
0 0  0
0 0  0
0 0  0
0 0  0
0 0  0
0 0  0
0 0  0
0 0  0
0 0  0
0 0  0
0 0  0
0 0  0
0 0  0
0 0  0
0 0  0
0 0  0
0 0  0
0 0  0
0 0  0
0 0  0
0 0  0
0 0  0
0 0  0
0 0  0
0 0  0
0 0  0
0 0  0
0 0  0
0 0  0
0 0  0
0 0  0
0 0  0
0 0  0
0 0  0
0 0  0
0 0  0
0 0  0
0 0  0
0 0  0
0 0  0
0 0  0
0 0  0
0 0  0
0 0  0
0 0  0
0 0  0
0 0  0
0 0  0
0 0  0
0 0  0
0 0  0
0 0  0
0 0  0
0 0  0
0 0  0
0 0  0
0 0  0
0 0  0
0 0  0
0 0  0
0 0  0
0 0  0
0 0  0
0 0  0
0 0  0
0 0  0
0 0  0
0 0  0
0 0  0
0 0  0
0 0  0
0 0  0
0 0  0
0 0  0
0 0  0
0 0  0
0 0  0
0 0  0
0 0  0
0 0  0
0 0  0
0 0  0
0 0  0
0 0  0
0 0  0
0 0  0
0 0  0
0 0  0
0 0  0
0 0  0
0 0  0
0 0  0
0 0  0
0 0  0
0 0  0
0 0  0
0 0  0
0 0  0
0 0  0
0 0  0
0 0  0
0 0  0
0 0  0
0 0  0
0 0  0
0 0  0
0 0  0
0 0  0
0 0  0
0 0  0
0 0  0
0 0  0
0 0  0
0 0  0
0 0  0
0 0  0
0 0  0
0 0  0
0 0  0
0 0  0
0 0  0
0 0  0
0 0  0
0 0  0
0 0  0
0 0  0
0 0  0
0 0  0
0 0  0
0 0  0
0 0  0
0 0  0
0 0  0
0 0  0
0 0  0
0 0  0
0 0  0
0 0  0
0 0  0
0 0  0
0 0  0
0 0  0
0 0  0
0 0  0
0 0  0
0 0  0
0 0  0
0 0  0
0 0  0
0 0  0
0 0  0
0 0  0
0 0  0
0 0  0
0 0  0
0 0  0
0 0  0
0 0  0
0 0  0
0 0  0
0 0  0
0 0  0
0 0  0
0 0  0
0 0  0
0 0  0
0 0  0
0 0  0
0 0  0
0 0  0
0 0  0
0 0  0
0 0  0
0 0  0
0 0  0
0 0  0
0 0  0
0 0  0
0 0  0
0 0  0
0 0  0
0 0  0
0 0  0
0 0  0
0 0  0
0 0  0
0 0  0
0 0  0
0 0  0
0 0  0
0 0  0
0 0  0
0 0  0
0 0  0
0 0  0
0 0  0
0 0  0
0 0  0
0 0  0
0 0  0
0 0  0
0 0  0
0 0  0
0 0  0
0 0  0
0 0  0
0 0  0
0 0  0
0 0  0
0 0  0
0 0  0
0 0  0
0 0  0
0 0  0
0 0  0
0 0  0
0 0  0
0 0  0
0 0  0
0 0  0
0 0  0
0 0  0
0 0  0
0 0  0
0 0  0
0 0  0
0 0  0
0 0  0
0 0  0
0 0  0
0 0  0
0 0  0
0 0  0
0 0  0
0 0  0
0 0  0
0 0  0
0 0  0
0 0  0
0 0  0
0 0  0
0 0  0
0 0  0
0 0  0
0 0  0
0 0  0
0 0  0
0 0  0
0 0  0
0 0  0
0 0  0
0 0  0
0 0  0
0 0  0
0 0  0
0 0  0
0 0  0
0 0  0
0 0  0
0 0  0
0 0  0
0 0  0
0 0  0
0 0  0
0 0  0
0 0  0
0 0  0
0 0  0
0 0  0
0 0  0
0 0  0
0 0  0
0 0  0
0 0  0
0 0  0
0 0  0
0 0  0
0 0  0
0 0  0
0 0  0
0 0  0
0 0  0
0 0  0
0 0  0
0 0  0
0 0  0
0 0  0
0 0  0
0 0  0
0 0  0
0 0  0
0 0  0
0 0  0

SCALARS pressure double 1
LOOKUP_TABLE default
1.95712
1.95672
1.95568
1.95412
1.9522
1.95011
1.94802
1.94608
1.94447
1.94327
1.94254
1.94231
1.94255
1.94317
1.94409
1.94517
1.94631
1.94735
1.94818
1.94875
1.94899
1.94885
1.94834
1.94754
1.94652
1.94537
1.9442
1.94308
1.94209
1.94126
1.94061
1.9401
1.93969
1.93928
1.93883
1.93832
1.93776
1.93725
1.93688
1.93669
1.76582
1.76553
1.76453
1.76297
1.76103
1.75889
1.75673
1.75477
1.75311
1.75188
1.75116
1.75095
1.75123
1.75192
1.75293
1.75413
1.75533
1.75644
1.75737
1.758
1.75827
1.75818
1.75766
1.75685
1.75582
1.75465
1.75346
1.75233
1.75133
1.75052
1.74989
1.74939
1.74898
1.74859
1.74815
1.74763
1.74708
1.74658
1.74622
1.74603
1.58306
1.58281
1.58179
1.58016
1.5781
1.57582
1.57355
1.57145
1.56971
1.56844
1.5677
1.56753
1.5679
1.56873
1.56991
1.57124
1.57263
1.57392
1.57497
1.57569
1.57608
1.57599
1.57547
1.57463
1.57355
1.57234
1.57109
1.56992
1.56892
1.56812
1.5675
1.56703
1.56665
1.56626
1.56582
1.56531
1.56477
1.56428
1.56393
1.56376
1.40886
1.40859
1.40747
1.40566
1.40338
1.40088
1.39837
1.39608
1.3942
1.39284
1.39209
1.39198
1.3925
1.39353
1.39492
1.39655
1.3982
1.39974
1.401
1.40192
1.40237
1.40233
1.40178
1.40087
1.3997
1.39837
1.39702
1.3958
1.39476
1.39397
1.3934
1.39297
1.39263
1.39228
1.39186
1.39136
1.39084
1.39038
1.39006
1.38991
1.24323
1.24288
1.24157
1.23946
1.23684
1.23395
1.2311
1.22852
1.22642
1.22495
1.22418
1.22418
1.22488
1.22619
1.22794
1.22994
1.232
1.2339
1.23549
1.23663
1.23723
1.2372
1.23659
1.23554
1.23419
1.23267
1.23117
1.22982
1.22874
1.22798
1.22746
1.22712
1.22686
1.22658
1.22621
1.22576
1.22529
1.22488
1.22462
1.2245
1.08615
1.08567
1.08403
1.08149
1.07834
1.07491
1.07155
1.06855
1.06616
1.06452
1.06375
1.06386
1.06484
1.06652
1.06877
1.07134
1.07396
1.07641
1.07845
1.0799
1.08067
1.08063
1.07987
1.07857
1.07691
1.07509
1.07332
1.07179
1.07065
1.06991
1.06951
1.0693
1.06919
1.06906
1.06881
1.06847
1.0681
1.06781
1.06764
1.06758
0.93761
0.936906
0.93481
0.931621
0.927716
0.923524
0.919452
0.915876
0.91308
0.911241
0.910431
0.910722
0.912028
0.914256
0.917169
0.920514
0.923963
0.927188
0.929871
0.931779
0.932761
0.932632
0.931587
0.929851
0.927676
0.925345
0.92315
0.921352
0.920101
0.919445
0.919216
0.919261
0.919415
0.919538
0.919537
0.919414
0.919256
0.919162
0.919158
0.919189
0.797568
0.796545
0.793795
0.789698
0.784749
0.779482
0.774425
0.770057
0.766728
0.764618
0.763787
0.764262
0.766016
0.768917
0.772746
0.777175
0.78181
0.786166
0.789784
0.792326
0.793573
0.793226
0.791659
0.789179
0.786154
0.782999
0.780148
0.777932
0.776549
0.776027
0.7761
0.776547
0.777158
0.777748
0.778191
0.778476
0.778695
0.778943
0.779216
0.7794
0.665985
0.664519
0.660867
0.655532
0.649154
0.642409
0.635989
0.630543
0.626508
0.624077
0.623189
0.623862
0.626116
0.629858
0.634882
0.640838
0.64719
0.653196
0.658176
0.661607
0.663162
0.662388
0.659933
0.656232
0.651833
0.647368
0.643493
0.640669
0.639133
0.638833
0.639391
0.640479
0.64184
0.643252
0.644494
0.645501
0.646366
0.647182
0.647898
0.648327
0.542857
0.540794
0.535943
0.528965
0.520677
0.511919
0.503589
0.496687
0.491762
0.488937
0.487944
0.488776
0.491483
0.496166
0.502695
0.510763
0.51965
0.528064
0.534963
0.539613
0.541474
0.539992
0.536134
0.530527
0.523972
0.51742
0.511987
0.508331
0.506629
0.506666
0.507925
0.509964
0.512504
0.51536
0.518033
0.520288
0.522218
0.523937
0.525343
0.526148
0.428323
0.425488
0.419093
0.409976
0.399213
0.387725
0.376608
0.367796
0.361866
0.358619
0.357363
0.358294
0.361241
0.366689
0.37496
0.385932
0.398676
0.410522
0.419971
0.426124
0.42823
0.425717
0.419873
0.411496
0.401679
0.391771
0.384082
0.379409
0.377573
0.377963
0.380017
0.383234
0.387439
0.392904
0.398182
0.402536
0.406171
0.409293
0.411753
0.413126
0.322839
0.319025
0.310657
0.298742
0.284953
0.269751
0.25407
0.243061
0.236313
0.232849
0.231025
0.232435
0.235279
0.240446
0.250348
0.265246
0.284289
0.30069
0.313165
0.320783
0.322911
0.319202
0.310941
0.298884
0.284388
0.268936
0.258351
0.252795
0.250859
0.251136
0.253381
0.256837
0.262996
0.273718
0.283962
0.291732
0.298054
0.30335
0.307407
0.309648
0.227312
0.222192
0.21123
0.195457
0.178413
0.158319
0.133434
0.121587
0.115595
0.110578
0.106741
0.112248
0.115278
0.117876
0.127326
0.145952
0.177202
0.199207
0.21531
0.223777
0.225566
0.220874
0.210172
0.19377
0.173474
0.146269
0.132709
0.127601
0.126087
0.125747
0.125815
0.128866
0.133384
0.155688
0.174939
0.187277
0.197754
0.206424
0.212783
0.21631
0.143067
0.135993
0.121619
0.0982573
0.0819305
0.0564406
0.00645826
0.00324643
0.00049508
0.00041502
-0.00854349
-0.00125739
0.00153813
-0.00211513
0.00176922
0.0184193
0.0862492
0.108233
0.129408
0.137463
0.138624
0.133564
0.121187
0.098396
0.0744524
0.0149096
0.00502394
0.00515906
0.0061642
0.00576126
0.00409141
0.00204697
-0.0166189
0.0374872
0.0731321
0.0889765
0.105887
0.119307
0.128347
0.13377
0.0722005
0.0600181
0.0446736
0.00101208
0.000994502
-0.0117486
0
0
0
0
0
0
0
0
0
0
0.043208
0.0184231
0.0619664
0.0652457
0.0654438
0.0609047
0.0493503
0.00838797
0.0134123
0
0
0
0
0
0
0
0
-0.0594705
-0.0073558
-0.00487572
0.0251474
0.0462866
0.0552044
0.0629393
0.0181795
-0.00879025
0.00301297
0
0
0
0
0
0
0
0
0
0
0
0
0
0
0
0.041104
0.00436755
0.00308572
0.00136595
0.0106885
0
0
0
0
0
0
0
0
0
0
0
0
0
-0.0361932
-0.00629958
-0.0127847
0.00453029
-0.00315232
0
0
0
0
0
0
0
0
0
0
0
0
0
0
0
0
0
0
0
0
0
0
0
0
0
0
0
0
0
0
0
0
0
0
0
0
0
0
-0.0332474
0
0
0
0
0
0
0
0
0
0
0
0
0
0
0
0
0
0
0
0
0
0
0
0
0
0
0
0
0
0
0
0
0
0
0
0
0
0
0
0
0
0
0
0
0
0
0
0
0
0
0
0
0
0
0
0
0
0
0
0
0
0
0
0
0
0
0
0
0
0
0
0
0
0
0
0
0
0
0
0
0
0
0
0
0
0
0
0
0
0
0
0
0
0
0
0
0
0
0
0
0
0
0
0
0
0
0
0
0
0
0
0
0
0
0
0
0
0
0
0
0
0
0
0
0
0
0
0
0
0
0
0
0
0
0
0
0
0
0
0
0
0
0
0
0
0
0
0
0
0
0
0
0
0
0
0
0
0
0
0
0
0
0
0
0
0
0
0
0
0
0
0
0
0
0
0
0
0
0
0
0
0
0
0
0
0
0
0
0
0
0
0
0
0
0
0
0
0
0
0
0
0
0
0
0
0
0
0
0
0
0
0
0
0
0
0
0
0
0
0
0
0
0
0
0
0
0
0
0
0
0
0
0
0
0
0
0
0
0
0
0
0
0
0
0
0
0
0
0
0
0
0
0
0
0
0
0
0
0
0
0
0
0
0
0
0
0
0
0
0
0
0
0
0
0
0
0
0
0
0
0
0
0
0
0
0
0
0
0
0
0
0
0
0
0
0
0
0
0
0
0
0
0
0
0
0
0
0
0
0
0
0
0
0
0
0
0
0
0
0
0
0
0
0
0
0
0
0
0
0
0
0
0
0
0
0
0
0
0
0
0
0
0
0
0
0
0
0
0
0
0
0
0
0
0
0
0
0
0
0
0
0
0
0
0
0
0
0
0
0
0
0
0
0
0
0
0
0
0
0
0
0
0
0
0
0
0
0
0
0
0
0
0
0
0
0
0
0
0
0
0
0
0
0
0
0
0
0
0
0
0
0
0
0
0
0
0
0
0
0
0
0
0
0
0
0
0
0
0
0
0
0
0
0
0
0
0
0
0
0
0
0
0
0
0
0
0
0
0
0
0
0
0
0
0
0
0
0
0
0
0
0
0
0
0
0
0
0
0
0
0
0
0
0
0
0
0
0
0
0
0
0
0
0
0
0
0
0
0
0
0
0
0
0
0
0
0
0
0
0
0
0
0
0
0
0
0
0
0
0
0
0
0
0
0
0
0
0
0
0
SCALARS rhs double 1
LOOKUP_TABLE default
-4.701
-4.75566
-4.75631
-4.75556
-4.7541
-4.75249
-4.75071
-4.74901
-4.74801
-4.74754
-4.74737
-4.74794
-4.74903
-4.75037
-4.75186
-4.75367
-4.75582
-4.75719
-4.75796
-4.7588
-4.76029
-4.76095
-4.75987
-4.75955
-4.75878
-4.75808
-4.75757
-4.75726
-4.75711
-4.75749
-4.75869
-4.7607
-4.76276
-4.76449
-4.76543
-4.76491
-4.76265
-4.7599
-4.75831
-4.75805
0.245113
0.193608
0.194065
0.195409
0.197138
0.199312
0.201578
0.202843
0.204431
0.20548
0.205641
0.205293
0.20448
0.203098
0.201072
0.198996
0.198452
0.197483
0.196307
0.195816
0.195717
0.194215
0.197075
0.198076
0.199175
0.200489
0.201765
0.202979
0.203553
0.202827
0.20198
0.200944
0.199345
0.197631
0.197129
0.198283
0.200528
0.202879
0.204161
0.20435
0.239321
0.190132
0.190673
0.192151
0.194028
0.196274
0.197728
0.200075
0.201445
0.201958
0.202773
0.20252
0.201434
0.199683
0.19788
0.19745
0.195612
0.194515
0.194112
0.194361
0.191999
0.192797
0.194628
0.195555
0.196523
0.197703
0.199258
0.200241
0.200263
0.199837
0.1993
0.197692
0.196034
0.195235
0.19517
0.19648
0.199168
0.201792
0.203024
0.20301
0.232774
0.185725
0.186433
0.188036
0.190132
0.191819
0.194325
0.195978
0.197169
0.198399
0.19895
0.198751
0.197441
0.196079
0.195453
0.193297
0.192724
0.191962
0.191764
0.190802
0.190375
0.189927
0.192061
0.192345
0.193215
0.194606
0.195599
0.196126
0.196899
0.196011
0.19463
0.193688
0.192632
0.19178
0.192426
0.194684
0.197887
0.200701
0.201884
0.201832
0.224418
0.180045
0.180936
0.182736
0.184471
0.186931
0.188906
0.190676
0.192218
0.192765
0.194121
0.193399
0.192724
0.191761
0.190142
0.189555
0.1884
0.188432
0.188084
0.188418
0.186508
0.187129
0.188198
0.188383
0.188952
0.189603
0.190249
0.191359
0.191495
0.189641
0.189251
0.188009
0.187154
0.187359
0.188889
0.192113
0.196191
0.199373
0.200542
0.200396
0.214045
0.172586
0.17376
0.175549
0.177866
0.180151
0.182148
0.184051
0.185142
0.186044
0.186944
0.187154
0.185988
0.185204
0.184064
0.18321
0.183384
0.183394
0.183828
0.184739
0.182021
0.182919
0.183445
0.182888
0.182613
0.182549
0.183267
0.183724
0.183339
0.181845
0.180533
0.179991
0.179781
0.180925
0.184034
0.188769
0.193941
0.197664
0.198889
0.198715
0.201165
0.162926
0.164446
0.166783
0.169492
0.171803
0.174043
0.175626
0.176628
0.176797
0.178529
0.177817
0.177433
0.175841
0.175355
0.175199
0.175789
0.176815
0.178317
0.179127
0.175471
0.177141
0.176705
0.174969
0.173417
0.17278
0.172653
0.172396
0.172378
0.169476
0.168418
0.16812
0.169114
0.171983
0.177231
0.184239
0.191091
0.195579
0.196899
0.196726
0.185466
0.150669
0.153118
0.156509
0.159691
0.162543
0.164803
0.166289
0.166694
0.166236
0.167038
0.166761
0.165061
0.163822
0.163164
0.164112
0.165522
0.167514
0.169511
0.170656
0.164246
0.168318
0.166498
0.16341
0.160508
0.158466
0.157147
0.156683
0.156026
0.151718
0.150309
0.150832
0.153397
0.159016
0.167743
0.17814
0.187507
0.19315
0.194559
0.19434
0.16736
0.136371
0.140621
0.14559
0.15003
0.153583
0.156149
0.15766
0.157596
0.154876
0.154637
0.153725
0.151126
0.148476
0.147794
0.149345
0.15168
0.153931
0.155289
0.155467
0.144337
0.15332
0.150811
0.147034
0.142699
0.138823
0.136606
0.135597
0.133663
0.126936
0.123956
0.124967
0.129963
0.139807
0.154084
0.169744
0.182897
0.190226
0.191696
0.191343
0.148868
0.122202
0.128939
0.136302
0.142666
0.146881
0.150225
0.152996
0.152887
0.14751
0.143951
0.1442
0.141495
0.133651
0.131346
0.133316
0.134837
0.134829
0.13304
0.127188
0.111688
0.127441
0.127948
0.125827
0.121053
0.116191
0.11413
0.112766
0.10813
0.0960837
0.0874605
0.0864967
0.0939703
0.110217
0.133431
0.157198
0.176192
0.186159
0.187803
0.187348
0.133711
0.111267
0.120317
0.130514
0.139309
0.142635
0.148197
0.15707
0.159756
0.145849
0.141385
0.152847
0.156022
0.134405
0.124618
0.124764
0.121134
0.113934
0.104832
0.0855643
0.0651642
0.0926781
0.101229
0.105201
0.10314
0.100228
0.101644
0.101286
0.0903671
0.0692987
0.0444111
0.0335363
0.0383171
0.0628878
0.100493
0.137209
0.165834
0.180285
0.182316
0.181964
0.124423
0.104
0.113704
0.127017
0.141372
0.136049
0.155151
0.181158
0.190572
0.117947
0.135509
0.170585
0.190434
0.191234
0.148285
0.132888
0.122048
0.10321
0.0887909
0.0541445
0.0343059
0.0708438
0.0884727
0.10266
0.10545
0.104809
0.116534
0.119895
0.102914
0.0812782
0.0340018
0.00590305
-0.0395831
-0.00661872
0.0515326
0.108755
0.153623
0.175499
0.176264
0.175142
0.118026
0.0935923
0.104441
0.124716
0.162409
0.120452
0.194959
0.247915
0.191093
0.365372
0.480159
0.121975
0.168234
0.26289
0.199585
0.149844
0.156957
0.100479
0.10204
0.0871819
0.0825315
0.105383
0.123641
0.135645
0.120894
0.160921
0.194261
0.191254
0.178257
0.188196
0.223388
0.0771853
-0.0425843