# vtk DataFile Version 4.0
Nusif Fluid VTK output
ASCII
DATASET STRUCTURED_POINTS
DIMENSIONS 40 30 1
ORIGIN 0 0 0 
SPACING 0.2 0.2 1
POINT_DATA 1200 

VECTORS velocity double
0.000171442 -0.000334325  0
0.000562683 -0.000336777  0
0.0010075 -0.000342443  0
0.00146579 -0.000351269  0
0.0019437 -0.000363334  0
0.00244764 -0.000378792  0
0.00298441 -0.000397841  0
0.00356135 -0.00042069  0
0.00418633 -0.000447648  0
0.00486787 -0.0004791  0
0.00561535 -0.000515394  0
0.00643902 -0.000557093  0
0.00735021 -0.000604682  0
0.00836147 -0.000658871  0
0.0094867 -0.00072033  0
0.0107414 -0.000789937  0
0.0121428 -0.000868585  0
0.0137101 -0.000957335  0
0.0154647 -0.00105733  0
0.0174305 -0.00116985  0
0.0196339 -0.00129627  0
0.0221043 -0.00143808  0
0.0248741 -0.00159687  0
0.0279792 -0.00177425  0
0.0314586 -0.00197181  0
0.0353547 -0.00219123  0
0.0397129 -0.002434  0
0.0445816 -0.00270145  0
0.0500119 -0.00299453  0
0.0560576 -0.00331415  0
0.0627825 -0.00365049  0
0.07028 -0.00397235  0
0.0785803 -0.00439956  0
0.0877271 -0.00489443  0
0.0979235 -0.00545346  0
0.109479 -0.00619825  0
0.122826 -0.0072253  0
0.137281 -0.00731291  0
0.138599 0.00591211  0
0.0663234 0.066285  0
0.000168792 -0.000952738  0
0.000554349 -0.000959687  0
0.000993019 -0.000976144  0
0.00144496 -0.00100196  0
0.00191626 -0.00103739  0
0.00241323 -0.00108289  0
0.00294262 -0.00113904  0
0.00351166 -0.00120654  0
0.00412805 -0.00128632  0
0.00480026 -0.00137945  0
0.0055375 -0.00148712  0
0.00634989 -0.00161088  0
0.0072486 -0.00175231  0
0.008246 -0.00191342  0
0.00935583 -0.00209633  0
0.0105934 -0.00230355  0
0.0119756 -0.00253785  0
0.0135216 -0.00280234  0
0.0152524 -0.00310049  0
0.0171918 -0.0034361  0
0.0193658 -0.00381334  0
0.0218039 -0.00423671  0
0.0245382 -0.00471095  0
0.0276044 -0.00524098  0
0.0310417 -0.00583176  0
0.0348926 -0.00648829  0
0.0392027 -0.00721513  0
0.0440211 -0.00801606  0
0.0493992 -0.00889404  0
0.0554016 -0.00983781  0
0.0621243 -0.0108029  0
0.0695309 -0.0119169  0
0.0776582 -0.0131592  0
0.0866727 -0.0145359  0
0.0966089 -0.0161446  0
0.107531 -0.0181815  0
0.119466 -0.0207121  0
0.130844 -0.0198354  0
0.127567 0.0202209  0
0.0595616 0.192083  0
0.000163893 -0.0015137  0
0.000538574 -0.00152467  0
0.000965143 -0.00155122  0
0.0014046 -0.00159313  0
0.00186286 -0.00165083  0
0.0023461 -0.00172508  0
0.00286089 -0.00181683  0
0.00341421 -0.00192731  0
0.00401357 -0.00205808  0
0.00466723 -0.00221082  0
0.00538409 -0.00238768  0
0.00617401 -0.00259102  0
0.00704786 -0.00282367  0
0.00801765 -0.00308876  0
0.00909678 -0.00338998  0
0.0103001 -0.00373135  0
0.0116442 -0.00411756  0
0.0131477 -0.00455371  0
0.0148312 -0.00504561  0
0.0167178 -0.0055996  0
0.0188334 -0.00622263  0
0.0212068 -0.00692226  0
0.02387 -0.00770649  0
0.0268585 -0.00858368  0
0.0302113 -0.00956245  0
0.0339713 -0.0106512  0
0.038185 -0.0118577  0
0.0429024 -0.0131883  0
0.0481899 -0.0146341  0
0.0541485 -0.0161513  0
0.060703 -0.0178736  0
0.0679232 -0.0197449  0
0.0759607 -0.0217427  0
0.0847397 -0.0239197  0
0.0942484 -0.0263731  0
0.104431 -0.0292488  0
0.114987 -0.0323342  0
0.124179 -0.0289739  0
0.119613 0.0370136  0
0.0555844 0.307131  0
0.000156852 -0.00205721  0
0.000515654 -0.00207205  0
0.000924326 -0.00210831  0
0.00134533 -0.00216574  0
0.00178432 -0.00224491  0
0.00224724 -0.00234688  0
0.0027404 -0.00247297  0
0.00327043 -0.00262495  0
0.00384457 -0.00280486  0
0.00447069 -0.00301513  0
0.00515733 -0.0032587  0
0.00591393 -0.00353883  0
0.00675088 -0.00385946  0
0.00767972 -0.00422492  0
0.00871326 -0.00464028  0
0.00986579 -0.00511119  0
0.0111533 -0.00564407  0
0.0125935 -0.00624613  0
0.0142066 -0.00692538  0
0.0160147 -0.00769074  0
0.0180432 -0.00855199  0
0.02032 -0.0095198  0
0.0228767 -0.0106055  0
0.0257483 -0.0118213  0
0.028974 -0.0131796  0
0.0325971 -0.0146925  0
0.0366654 -0.0163713  0
0.0412444 -0.0182145  0
0.0464358 -0.0201879  0
0.0521618 -0.0224047  0
0.0585303 -0.024827  0
0.0656612 -0.0273897  0
0.0734825 -0.0301265  0
0.0820393 -0.0330471  0
0.091238 -0.0361512  0
0.100865 -0.0394736  0
0.110483 -0.0424703  0
0.11843 -0.0361681  0
0.113931 0.0530785  0
0.0531065 0.415724  0
0.000147779 -0.00257734  0
0.000485922 -0.0025959  0
0.000871139 -0.00264139  0
0.00126795 -0.00271354  0
0.00168171 -0.00281311  0
0.00211804 -0.00294138  0
0.00258282 -0.00310011  0
0.00308232 -0.00329147  0
0.00362339 -0.00351804  0
0.00421339 -0.00378296  0
0.00486038 -0.00408983  0
0.00557325 -0.00444291  0
0.00636178 -0.00484706  0
0.00723684 -0.00530785  0
0.00821052 -0.00583162  0
0.00929631 -0.00642562  0
0.0105093 -0.00709797  0
0.0118664 -0.00785786  0
0.0133866 -0.00871553  0
0.0150912 -0.00968244  0
0.0170044 -0.0107712  0
0.0191533 -0.0119957  0
0.0215684 -0.0133709  0
0.0242844 -0.0149127  0
0.0273401 -0.016638  0
0.0307795 -0.018563  0
0.0346629 -0.0206964  0
0.0390857 -0.0230201  0
0.0439996 -0.0256131  0
0.0495092 -0.0284953  0
0.0557179 -0.0315563  0
0.0626234 -0.034865  0
0.0703029 -0.0383591  0
0.0787124 -0.0419781  0
0.0877731 -0.0456596  0
0.0972464 -0.0492593  0
0.10661 -0.0518642  0
0.114343 -0.0426482  0
0.110981 0.0672254  0
0.0522273 0.520959  0
0.000136792 -0.00306853  0
0.000449773 -0.00309063  0
0.000806297 -0.00314476  0
0.00117354 -0.00323068  0
0.00155646 -0.00334928  0
0.00196024 -0.00350212  0
0.00239031 -0.0036913  0
0.00285249 -0.00391939  0
0.00335308 -0.00418951  0
0.00389889 -0.00450538  0
0.00449737 -0.00487133  0
0.0051567 -0.00529244  0
0.00588595 -0.0057745  0
0.00669515 -0.00632422  0
0.00759548 -0.00694918  0
0.00859944 -0.00765808  0
0.00972103 -0.0084607  0
0.010976 -0.00936811  0
0.012382 -0.0103927  0
0.013959 -0.0115485  0
0.0157299 -0.0128509  0
0.0177203 -0.014317  0
0.0199596 -0.0159656  0
0.0224812 -0.0178168  0
0.0253237 -0.0198918  0
0.0285387 -0.0222086  0
0.0322084 -0.0247674  0
0.0363276 -0.0276169  0
0.0409605 -0.0308281  0
0.0462184 -0.0342882  0
0.0521604 -0.038092  0
0.0588583 -0.0421557  0
0.0663693 -0.0464482  0
0.0747367 -0.0508599  0
0.0839044 -0.0552055  0
0.0936955 -0.0591704  0
0.103668 -0.0614851  0
0.112493 -0.0497845  0
0.111374 0.0786437  0
0.0531915 0.626277  0
0.000124021 -0.00352567  0
0.000407666 -0.0035511  0
0.000730665 -0.00361319  0
0.00106337 -0.00371171  0
0.00141026 -0.00384773  0
0.00177601 -0.00402306  0
0.00216553 -0.00424009  0
0.0025841 -0.00450177  0
0.00303739 -0.00481171  0
0.00353155 -0.00517416  0
0.00407332 -0.00559411  0
0.00467007 -0.00607738  0
0.00533 -0.00663066  0
0.00606216 -0.00726164  0
0.00687665 -0.00797911  0
0.00778479 -0.00879306  0
0.00879926 -0.00971486  0
0.00993433 -0.0107573  0
0.0112061 -0.011935  0
0.012633 -0.0132641  0
0.0142359 -0.014763  0
0.0160386 -0.0164519  0
0.0180687 -0.0183536  0
0.0203581 -0.0204924  0
0.0229482 -0.0228933  0
0.0259038 -0.0255722  0
0.0292546 -0.0285615  0
0.033025 -0.0319484  0
0.0373281 -0.0356768  0
0.0422453 -0.0398111  0
0.0478503 -0.0443285  0
0.0542672 -0.0492299  0
0.0615989 -0.0544283  0
0.069953 -0.0597972  0
0.0794083 -0.0650867  0
0.0899509 -0.0698244  0
0.101379 -0.0724319  0
0.112661 -0.0591454  0
0.114805 0.0867772  0
0.0557806 0.735147  0
0.000109614 -0.00394414  0
0.00036013 -0.00397268  0
0.000645245 -0.00404192  0
0.000938921 -0.00415173  0
0.0012451 -0.00430333  0
0.00156787 -0.00449875  0
0.00191158 -0.00474064  0
0.00228085 -0.00503232  0
0.00268069 -0.00537778  0
0.00311647 -0.00578178  0
0.00359413 -0.0062499  0
0.00412014 -0.0067886  0
0.00470167 -0.00740537  0
0.00534668 -0.00810881  0
0.00606404 -0.00890874  0
0.00686367 -0.00981637  0
0.00775674 -0.0108445  0
0.00875581 -0.0120075  0
0.00987516 -0.0133218  0
0.011131 -0.014806  0
0.012542 -0.0164809  0
0.0141297 -0.0183701  0
0.0159191 -0.0205  0
0.0179414 -0.0228991  0
0.0202439 -0.025594  0
0.0228704 -0.0286144  0
0.025832 -0.0320348  0
0.0292121 -0.0358741  0
0.0330976 -0.04015  0
0.0375666 -0.0449256  0
0.0427416 -0.0502067  0
0.0487588 -0.055993  0
0.0558018 -0.0622419  0
0.0640754 -0.068819  0
0.0738224 -0.0754682  0
0.0852988 -0.0816632  0
0.0987041 -0.0856314  0
0.113462 -0.072191  0
0.119776 0.0911587  0
0.0592679 0.850092  0
9.37354e-05 -0.00431993  0
0.000307763 -0.0043513  0
0.000551176 -0.00442679  0
0.000801886 -0.00454641  0
0.00106322 -0.00471153  0
0.00133868 -0.00492437  0
0.00163195 -0.0051878  0
0.00194695 -0.00550545  0
0.00228792 -0.00588166  0
0.00265943 -0.00632162  0
0.00306649 -0.00683137  0
0.00351459 -0.007418  0
0.00400977 -0.00808964  0
0.00455878 -0.00885567  0
0.00516908 -0.00972682  0
0.00584907 -0.0107153  0
0.00660816 -0.0118352  0
0.007457 -0.0131023  0
0.00840765 -0.0145348  0
0.00947391 -0.016153  0
0.0106717 -0.0179804  0
0.0120195 -0.0200435  0
0.0135398 -0.0223721  0
0.0152641 -0.0249978  0
0.0172329 -0.0279535  0
0.019463 -0.0312956  0
0.0219949 -0.0350864  0
0.0249099 -0.0393383  0
0.0282768 -0.0441412  0
0.032189 -0.049531  0
0.0367839 -0.0555759  0
0.042233 -0.0623033  0
0.0487733 -0.0697223  0
0.0567259 -0.0777707  0
0.0665106 -0.0862562  0
0.0786767 -0.0947237  0
0.0938809 -0.101387  0
0.112128 -0.0896483  0
0.123299 0.0909204  0
0.0623365 0.971591  0
7.65803e-05 -0.0046496  0
0.000251252 -0.00468349  0
0.000449738 -0.00476424  0
0.000654147 -0.00489206  0
0.00086717 -0.00506845  0
0.00109164 -0.00529579  0
0.00133055 -0.00557715  0
0.00158707 -0.00591639  0
0.00186461 -0.00631815  0
0.00216687 -0.00678796  0
0.00249787 -0.00733227  0
0.00286202 -0.00795864  0
0.00326417 -0.00867575  0
0.0037097 -0.00949362  0
0.0042046 -0.0104237  0
0.00475555 -0.0114791  0
0.00537008 -0.0126749  0
0.00605667 -0.014028  0
0.00682495 -0.015558  0
0.0076859 -0.0172869  0
0.00865216 -0.0192403  0
0.00973888 -0.0214473  0
0.0109658 -0.0239404  0
0.0123613 -0.026755  0
0.0139477 -0.0299366  0
0.0157395 -0.0335525  0
0.017792 -0.0376427  0
0.0201608 -0.0422741  0
0.0229096 -0.0475311  0
0.0261382 -0.0534944  0
0.0299779 -0.0602586  0
0.0346236 -0.0679249  0
0.0403499 -0.0765805  0
0.0475618 -0.0862864  0
0.0568406 -0.0970134  0
0.0689917 -0.108494  0
0.0850124 -0.119052  0
0.105331 -0.11076  0
0.121217 0.0847614  0
0.0629483 1.09677  0
5.84118e-05 -0.00493046  0
0.000191482 -0.00496649  0
0.000342538 -0.00505143  0
0.000498055 -0.00518571  0
0.000660062 -0.00537097  0
0.000830704 -0.0056097  0
0.00101222 -0.00590514  0
0.001207 -0.00626132  0
0.00141761 -0.0066831  0
0.00164679 -0.00717626  0
0.00189754 -0.0077476  0
0.00217312 -0.008405  0
0.00247713 -0.00915757  0
0.00281354 -0.0100158  0
0.00318672 -0.0109917  0
0.00360157 -0.0120991  0
0.00406357 -0.0133536  0
0.00457891 -0.0147734  0
0.00515467 -0.0163789  0
0.00579868 -0.0181931  0
0.00651978 -0.0202432  0
0.00732953 -0.0225612  0
0.00824432 -0.0251812  0
0.00928279 -0.0281442  0
0.0104538 -0.0315062  0
0.0117797 -0.0353264  0
0.0133018 -0.039657  0
0.0150576 -0.0445928  0
0.0171028 -0.0502204  0
0.0195216 -0.0566625  0
0.0224318 -0.0640546  0
0.0260153 -0.0725699  0
0.0305532 -0.0824124  0
0.0364863 -0.0938133  0
0.044514 -0.107005  0
0.0557101 -0.122062  0
0.0715645 -0.137572  0
0.0933991 -0.134607  0
0.115556 0.0703503  0
0.0625901 1.2222  0
3.99281e-05 -0.005161  0
0.000130638 -0.00519872  0
0.000233358 -0.00528671  0
0.000339052 -0.00542566  0
0.00044909 -0.00561731  0
0.000564914 -0.00586423  0
0.000688017 -0.00616977  0
0.00082 -0.00653808  0
0.000962545 -0.00697417  0
0.00111747 -0.00748402  0
0.00128673 -0.00807461  0
0.00147247 -0.00875407  0
0.001677 -0.0095318  0
0.00190288 -0.0104186  0
0.00215292 -0.0114269  0
0.00243018 -0.0125708  0
0.00273813 -0.0138666  0
0.00308067 -0.015333  0
0.00346264 -0.0169916  0
0.00388877 -0.0188649  0
0.00436326 -0.0209809  0
0.0048945 -0.0233763  0
0.00549426 -0.0260847  0
0.0061698 -0.0291529  0
0.00692632 -0.0326382  0
0.00778409 -0.0365953  0
0.00876439 -0.0410993  0
0.00989187 -0.0462446  0
0.0112065 -0.052141  0
0.0127652 -0.0589317  0
0.0146572 -0.0668005  0
0.0170236 -0.0759886  0
0.0201024 -0.0868241  0
0.0243059 -0.099753  0
0.0303858 -0.115388  0
0.0397671 -0.134471  0
0.0551803 -0.156646  0
0.0810147 -0.163418  0
0.113532 0.0442713  0
0.0649391 1.34962  0
2.45794e-05 -0.00534408  0
7.91982e-05 -0.00538302  0
0.000139956 -0.005473  0
0.000202469 -0.00561497  0
0.000267554 -0.00581072  0
0.000336055 -0.00606288  0
0.000408847 -0.00637486  0
0.000486861 -0.00675087  0
0.000571075 -0.00719605  0
0.000662546 -0.00771645  0
0.000762412 -0.00831919  0
0.0008719 -0.00901255  0
0.000992358 -0.0098061  0
0.00112525 -0.0107108  0
0.00127221 -0.0117393  0
0.00143501 -0.012906  0
0.00161557 -0.0142273  0
0.00181585 -0.0157224  0
0.0020388 -0.0174143  0
0.00228825 -0.0193248  0
0.00256718 -0.0214811  0
0.00288072 -0.0239256  0
0.0032344 -0.0266896  0
0.00363075 -0.0298239  0
0.00407654 -0.0333822  0
0.00458392 -0.0374257  0
0.00516442 -0.0420381  0
0.00583488 -0.047315  0
0.00662109 -0.0533825  0
0.00756024 -0.0604011  0
0.00871262 -0.0685885  0
0.010178 -0.0782469  0
0.0121339 -0.0898156  0
0.014921 -0.103967  0
0.0192522 -0.121801  0
0.0267791 -0.145183  0
0.0417445 -0.17653  0
0.0754322 -0.203274  0
0.120269 0.00655512  0
0.0707651 1.48522  0
2.60135e-05 -0.00545057  0
7.82034e-05 -0.00549016  0
0.000131302 -0.00558165  0
0.000186238 -0.00572584  0
0.000243727 -0.00592459  0
0.000304544 -0.00618057  0
0.000369516 -0.00649722  0
0.000439536 -0.00687884  0
0.000515578 -0.00733063  0
0.000598706 -0.00785874  0
0.000690092 -0.0084704  0
0.000791043 -0.00917401  0
0.00090303 -0.00997927  0
0.00102773 -0.0108974  0
0.00116708 -0.0119411  0
0.00132336 -0.0131252  0
0.00149889 -0.0144661  0
0.00168148 -0.0159684  0
0.00181506 -0.0176267  0
0.00194921 -0.0195978  0
0.00231201 -0.0219514  0
0.00278182 -0.0243394  0
0.00318423 -0.0271321  0
0.00362573 -0.0303224  0
0.00413659 -0.0339453  0
0.00473176 -0.0380687  0
0.00543045 -0.0427786  0
0.00625859 -0.0481783  0
0.00725225 -0.0544044  0
0.0084637 -0.061636  0
0.00997245 -0.0701213  0
0.0119073 -0.0802213  0
0.0144951 -0.0924925  0
0.0181691 -0.10786  0
0.0237712 -0.12795  0
0.0327545 -0.155653  0
0.0476625 -0.196043  0
0.0880419 -0.257937  0
0.161101 -0.0568414  0
0.101564 1.65743  0
4.58863e-05 -0.00273829  0
0.000144194 -0.00275817  0
0.000250062 -0.00280428  0
0.000358987 -0.00287693  0
0.000472755 -0.00297703  0
0.000592935 -0.00310595  0
0.000721176 -0.00326542  0
0.000859255 -0.00345761  0
0.00100907 -0.00368514  0
0.00117272 -0.00395111  0
0.00135251 -0.00425916  0
0.00155099 -0.00461352  0
0.00177106 -0.00501911  0
0.00201598 -0.00548156  0
0.00228948 -0.00600736  0
0.00259549 -0.00660395  0
0.00292401 -0.0072795  0
0.0018499 -0.379256  0
-0.000739134 -0.380062  0
-0.00183714 -0.382419  0
0.00017137 -0.384781  0
0.00385472 -0.385251  0
0.00619528 -0.386651  0
0.00706703 -0.0152794  0
0.0080519 -0.0171099  0
0.00920015 -0.0191947  0
0.01055 -0.0215783  0
0.0121543 -0.0243143  0
0.01409 -0.0274739  0
0.0164708 -0.031152  0
0.0194781 -0.0354811  0
0.0234193 -0.0406577  0
0.0288573 -0.0469931  0
0.0368621 -0.0550199  0
0.0493584 -0.0656861  0
0.0697633 -0.0806071  0
0.11154 -0.102695  0
-0.766316 -0.193946  0
-1.67322 -0.0989221  0
-0.836611 0.922333  0
0 0  0
0 0  0
0 0  0
0 0  0
0 0  0
0 0  0
0 0  0
0 0  0
0 0  0
0 0  0
0 0  0
0 0  0
0 0  0
0 0  0
0 0  0
0 0  0
0.000443905 -0.370423  0
0.000748361 -0.74165  0
0.000608912 -0.742454  0
0.000605314 -0.745147  0
0.000579121 -0.747316  0
0.000556525 -0.745966  0
-1.90872e-05 -0.74762  0
-0.00029735 -0.374637  0
0 0  0
0 0  0
0 0  0
0 0  0
0 0  0
0 0  0
0 0  0
0 0  0
0 0  0
0 0  0
0 0  0
0 0  0
0 0  0
-0.836611 -0.049461  0
-1.76554 -0.049461  0
-0.928933 0.0428609  0
0 0  0
0 0  0
0 0  0
0 0  0
0 0  0
0 0  0
0 0  0
0 0  0
0 0  0
0 0  0
0 0  0
0 0  0
0 0  0
0 0  0
0 0  0
0 0  0
0.000443905 -0.736845  0
0.00088781 -0.740847  0
0.00082282 -0.742443  0
0.000235354 -0.744675  0
-0.000934148 -0.746701  0
-0.00108794 -0.746513  0
-0.0005947 -0.749274  0
-0.00029735 -0.748561  0
0 0  0
0 0  0
0 0  0
0 0  0
0 0  0
0 0  0
0 0  0
0 0  0
0 0  0
0 0  0
0 0  0
0 0  0
0 0  0
0 0  0
0 0  0
0 0  0
0 0  0
0 0  0
0 0  0
0 0  0
0 0  0
0 0  0
0 0  0
0 0  0
0 0  0
0 0  0
0 0  0
0 0  0
0 0  0
0 0  0
0 0  0
0 0  0
0.00444625 -0.727209  0
0.00666617 -0.738621  0
0.00216206 -0.740209  0
-0.00114898 -0.743227  0
-0.00246276 -0.745882  0
-0.00241197 -0.747446  0
-0.00205147 -0.749304  0
-0.00101114 -0.747719  0
0 0  0
0 0  0
0 0  0
0 0  0
0 0  0
0 0  0
0 0  0
0 0  0
0 0  0
0 0  0
0 0  0
0 0  0
0 0  0
0 0  0
0 0  0
0 0  0
0 0  0
0 0  0
0 0  0
0 0  0
0 0  0
0 0  0
0 0  0
0 0  0
0 0  0
0 0  0
0 0  0
0 0  0
0 0  0
0 0  0
0 0  0
0 0  0
0.0118553 -0.7111  0
0.0152829 -0.727966  0
0.00163684 -0.732822  0
-0.00462162 -0.741262  0
-0.00539213 -0.745979  0
-0.00458812 -0.748421  0
-0.00390914 -0.749477  0
-0.00188227 -0.747365  0
0 0  0
0 0  0
0 0  0
0 0  0
0 0  0
0 0  0
0 0  0
0 0  0
0 0  0
0 0  0
0 0  0
0 0  0
0 0  0
0 0  0
0 0  0
0 0  0
0 0  0
0 0  0
0 0  0
0 0  0
0 0  0
0 0  0
0 0  0
0 0  0
0 0  0
0 0  0
0 0  0
0 0  0
0 0  0
0 0  0
0 0  0
0 0  0
0.0213128 -0.728779  0
0.0225354 -0.699449  0
-0.00584003 -0.719427  0
-0.0131033 -0.741352  0
-0.0104013 -0.748037  0
-0.007532 -0.750253  0
-0.00629496 -0.74967  0
-0.00312353 -0.746377  0
0 0  0
0 0  0
0 0  0
0 0  0
0 0  0
0 0  0
0 0  0
0 0  0
0 0  0
0 0  0
0 0  0
0 0  0
0 0  0
0 0  0
0 0  0
0 0  0
0 0  0
0 0  0
0 0  0
0 0  0
0 0  0
0 0  0
0 0  0
0 0  0
0 0  0
0 0  0
0 0  0
0 0  0
0 0  0
0 0  0
0 0  0
0 0  0
-0.0174747 -0.718146  0
-0.0349493 -0.679358  0
-0.036329 -0.70987  0
-0.0293183 -0.750873  0
-0.017171 -0.753583  0
-0.0118816 -0.753082  0
-0.0103493 -0.749718  0
-0.00517464 -0.747667  0
0 0  0
0 0  0
0 0  0
0 0  0
0 0  0
0 0  0
0 0  0
0 0  0
0 0  0
0 0  0
0 0  0
0 0  0
0 0  0
0 0  0
0 0  0
0 0  0
0 0  0
0 0  0
0 0  0
0 0  0
0 0  0
0 0  0
0 0  0
0 0  0
0 0  0
0 0  0
0 0  0
0 0  0
0 0  0
0 0  0
0 0  0
0 0  0
-0.0174747 -0.339679  0
-0.0429548 -0.693951  0
-0.0509603 -0.708545  0
-0.0386434 -0.771634  0
-0.022296 -0.761425  0
-0.0182654 -0.754669  0
-0.0143073 -0.752193  0
-0.00517464 -0.374859  0
0 0  0
0 0  0
0 0  0
0 0  0
0 0  0
0 0  0
0 0  0
0 0  0
0 0  0
0 0  0
0 0  0
0 0  0
0 0  0
0 0  0
0 0  0
0 0  0
0 0  0
0 0  0
0 0  0
0 0  0
0 0  0
0 0  0
0 0  0
0 0  0
0 0  0
0 0  0
0 0  0
0 0  0
0 0  0
0 0  0
0 0  0
0 0  0
0 0  0
-0.0254802 -0.354272  0
-0.0132571 -0.354272  0
-0.0101879 -0.391976  0
-0.036937 -0.382728  0
-0.0236587 -0.377335  0
-0.0091327 -0.377335  0
0 0  0
0 0  0
0 0  0
0 0  0
0 0  0
0 0  0
0 0  0
0 0  0
0 0  0
0 0  0
0 0  0
0 0  0
0 0  0
0 0  0
0 0  0
0 0  0
0 0  0
0 0  0
0 0  0
0 0  0
0 0  0
0 0  0
0 0  0
0 0  0
0 0  0
0 0  0
0 0  0
0 0  0
0 0  0
0 0  0
0 0  0
0 0  0
0 0  0
0 0  0
0 0  0
0 0  0
0 0  0
0 0  0
0 0  0
0 0  0
0 0  0
0 0  0
0 0  0
0 0  0
0 0  0
0 0  0
0 0  0
0 0  0
0 0  0
0 0  0
0 0  0
0 0  0
0 0  0
0 0  0
0 0  0
0 0  0
0 0  0
0 0  0
0 0  0
0 0  0
0 0  0
0 0  0
0 0  0
0 0  0
0 0  0
0 0  0
0 0  0
0 0  0
0 0  0
0 0  0
0 0  0
0 0  0
0 0  0
0 0  0
0 0  0
0 0  0
0 0  0
0 0  0
0 0  0
0 0  0
0 0  0
0 0  0
0 0  0
0 0  0
0 0  0
0 0  0
0 0  0
0 0  0
0 0  0
0 0  0
0 0  0
0 0  0
0 0  0
0 0  0
0 0  0
0 0  0
0 0  0
0 0  0
0 0  0
0 0  0
0 0  0
0 0  0
0 0  0
0 0  0
0 0  0
0 0  0
0 0  0
0 0  0
0 0  0
0 0  0
0 0  0
0 0  0
0 0  0
0 0  0
0 0  0
0 0  0
0 0  0
0 0  0
0 0  0
0 0  0
0 0  0
0 0  0
0 0  0
0 0  0
0 0  0
0 0  0
0 0  0
0 0  0
0 0  0
0 0  0
0 0  0
0 0  0
0 0  0
0 0  0
0 0  0
0 0  0
0 0  0
0 0  0
0 0  0
0 0  0
0 0  0
0 0  0
0 0  0
0 0  0
0 0  0
0 0  0
0 0  0
0 0  0
0 0  0
0 0  0
0 0  0
0 0  0
0 0  0
0 0  0
0 0  0
0 0  0
0 0  0
0 0  0
0 0  0
0 0  0
0 0  0
0 0  0
0 0  0
0 0  0
0 0  0
0 0  0
0 0  0
0 0  0
0 0  0
0 0  0
0 0  0
0 0  0
0 0  0
0 0  0
0 0  0
0 0  0
0 0  0
0 0  0
0 0  0
0 0  0
0 0  0
0 0  0
0 0  0
0 0  0
0 0  0
0 0  0
0 0  0
0 0  0
0 0  0
0 0  0
0 0  0
0 0  0
0 0  0
0 0  0
0 0  0
0 0  0
0 0  0
0 0  0
0 0  0
0 0  0
0 0  0
0 0  0
0 0  0
0 0  0
0 0  0
0 0  0
0 0  0
0 0  0
0 0  0
0 0  0
0 0  0
0 0  0
0 0  0
0 0  0
0 0  0
0 0  0
0 0  0
0 0  0
0 0  0
0 0  0
0 0  0
0 0  0
0 0  0
0 0  0
0 0  0
0 0  0
0 0  0
0 0  0
0 0  0
0 0  0
0 0  0
0 0  0
0 0  0
0 0  0
0 0  0
0 0  0
0 0  0
0 0  0
0 0  0
0 0  0
0 0  0
0 0  0
0 0  0
0 0  0
0 0  0
0 0  0
0 0  0
0 0  0
0 0  0
0 0  0
0 0  0
0 0  0
0 0  0
0 0  0
0 0  0
0 0  0
0 0  0
0 0  0
0 0  0
0 0  0
0 0  0
0 0  0
0 0  0
0 0  0
0 0  0
0 0  0
0 0  0
0 0  0
0 0  0
0 0  0
0 0  0
0 0  0
0 0  0
0 0  0
0 0  0
0 0  0
0 0  0
0 0  0
0 0  0
0 0  0
0 0  0
0 0  0
0 0  0
0 0  0
0 0  0
0 0  0
0 0  0
0 0  0
0 0  0
0 0  0
0 0  0
0 0  0
0 0  0
0 0  0
0 0  0
0 0  0
0 0  0

SCALARS pressure double 1
LOOKUP_TABLE default
1.53754
1.54119
1.54453
1.54757
1.55035
1.55291
1.55529
1.55751
1.55961
1.56164
1.56361
1.56558
1.56757
1.56963
1.57179
1.57409
1.57657
1.57927
1.58225
1.58554
1.58921
1.59331
1.5979
1.60305
1.60881
1.61527
1.62249
1.63054
1.63951
1.64947
1.66047
1.67229
1.68367
1.69604
1.71029
1.72598
1.74306
1.76206
1.78378
1.80741
1.35321
1.35678
1.36005
1.36303
1.36576
1.36828
1.37062
1.37282
1.3749
1.37691
1.37888
1.38084
1.38282
1.38487
1.38702
1.38931
1.39178
1.39447
1.39744
1.40071
1.40436
1.40843
1.41299
1.41809
1.4238
1.43019
1.43733
1.4453
1.45416
1.46397
1.47435
1.48367
1.49519
1.50808
1.52144
1.53618
1.55278
1.57121
1.59196
1.61479
1.18046
1.1839
1.18705
1.18993
1.19258
1.19502
1.1973
1.19943
1.20147
1.20343
1.20535
1.20727
1.20922
1.21123
1.21334
1.21559
1.21802
1.22066
1.22356
1.22677
1.23035
1.23434
1.23879
1.24378
1.24937
1.25561
1.26259
1.27037
1.27899
1.28798
1.29546
1.30603
1.31696
1.32827
1.34102
1.35516
1.37079
1.38821
1.40784
1.429
1.01914
1.02241
1.0254
1.02815
1.03067
1.033
1.03518
1.03723
1.03918
1.04107
1.04292
1.04477
1.04665
1.0486
1.05064
1.05281
1.05515
1.0577
1.06051
1.06361
1.06706
1.07091
1.07521
1.08002
1.0854
1.09142
1.09814
1.1056
1.11332
1.11944
1.12881
1.13741
1.14712
1.1579
1.16943
1.18237
1.19705
1.21359
1.23234
1.25232
0.869123
0.872174
0.874974
0.877542
0.879906
0.882098
0.884144
0.886075
0.887918
0.889703
0.891458
0.893213
0.894998
0.896843
0.898781
0.900845
0.903071
0.905496
0.90816
0.911107
0.914382
0.918035
0.922117
0.926683
0.93179
0.937497
0.943849
0.950441
0.955661
0.963376
0.970244
0.978456
0.986923
0.996144
1.00649
1.01809
1.03148
1.04718
1.06562
1.08523
0.73025
0.733047
0.735616
0.737975
0.740151
0.74217
0.744059
0.745845
0.747552
0.749208
0.750839
0.752471
0.754133
0.755853
0.757659
0.759584
0.76166
0.763922
0.766407
0.769155
0.772209
0.775615
0.779419
0.783674
0.788431
0.793733
0.799319
0.803944
0.809823
0.815709
0.822189
0.828678
0.835912
0.843607
0.852102
0.861944
0.873731
0.888348
0.906728
0.926652
0.602361
0.60487
0.607176
0.609297
0.611256
0.613077
0.614783
0.616398
0.617946
0.619449
0.620931
0.622417
0.623931
0.625498
0.627146
0.628903
0.630797
0.632862
0.635129
0.637637
0.640425
0.643533
0.647004
0.650884
0.655213
0.659863
0.664002
0.668338
0.673441
0.678288
0.683478
0.688826
0.694265
0.700104
0.706432
0.713777
0.723084
0.735757
0.753506
0.773862
0.485284
0.487476
0.489493
0.49135
0.493068
0.494667
0.496168
0.497592
0.498958
0.500286
0.501599
0.502916
0.504259
0.505651
0.507115
0.508676
0.51036
0.512195
0.514211
0.516441
0.518919
0.521681
0.524765
0.528208
0.531968
0.535583
0.538897
0.542992
0.546797
0.550887
0.554753
0.558668
0.562405
0.565969
0.569553
0.573539
0.578942
0.587714
0.602835
0.622727
0.378844
0.380695
0.382401
0.383974
0.38543
0.386789
0.388066
0.389279
0.390444
0.39158
0.392703
0.393832
0.394984
0.396179
0.397436
0.398777
0.400224
0.401802
0.403535
0.405451
0.407581
0.409955
0.412602
0.415526
0.418522
0.42121
0.424208
0.427374
0.430406
0.433398
0.436214
0.438624
0.440567
0.441746
0.442043
0.44159
0.44114
0.442844
0.451421
0.468483
0.282863
0.284356
0.285734
0.287006
0.288185
0.289287
0.290325
0.291312
0.292262
0.293189
0.294107
0.29503
0.295974
0.296953
0.297984
0.299084
0.300272
0.301566
0.302988
0.304561
0.306307
0.308252
0.310412
0.312725
0.314913
0.317042
0.319513
0.321788
0.324107
0.32615
0.327916
0.32908
0.329315
0.328171
0.324998
0.319206
0.310681
0.301091
0.297207
0.30768
0.197163
0.198287
0.199325
0.200284
0.201176
0.20201
0.202796
0.203545
0.204267
0.204973
0.205672
0.206377
0.207097
0.207845
0.208633
0.209475
0.210383
0.211374
0.212462
0.213663
0.214997
0.21648
0.218106
0.219756
0.221284
0.222966
0.224701
0.226337
0.227891
0.229212
0.230099
0.230298
0.229285
0.226306
0.220138
0.20896
0.190586
0.164299
0.138373
0.137118
0.121571
0.122319
0.12301
0.123651
0.124247
0.124805
0.125332
0.125835
0.12632
0.126795
0.127266
0.127741
0.128226
0.128731
0.129264
0.129832
0.130447
0.131117
0.131853
0.132662
0.133555
0.134552
0.135615
0.13664
0.137649
0.138787
0.139852
0.140908
0.141822
0.142546
0.142865
0.142507
0.140956
0.137271
0.129738
0.115115
0.0874478
0.0376617
-0.0355572
-0.056471
0.0559153
0.0562869
0.0566312
0.0569501
0.0572473
0.0575258
0.0577892
0.0580407
0.0582836
0.0585215
0.0587576
0.0589957
0.0592395
0.0594929
0.05976
0.0600453
0.0603539
0.060692
0.0610672
0.0614672
0.0618949
0.062395
0.0629034
0.0633836
0.0638973
0.0644353
0.0649402
0.0654254
0.0658299
0.0660984
0.0661224
0.0656974
0.0644657
0.0617014
0.0558764
0.0434551
0.0151808
-0.0566326
-0.260557
-0.30499
-1.28884e-05
-1.29937e-05
-1.33673e-05
-1.39085e-05
-1.46354e-05
-1.55606e-05
-1.66985e-05
-1.80668e-05
-1.96868e-05
-2.15829e-05
-2.37857e-05
-2.63305e-05
-2.92624e-05
-3.26392e-05
-3.65365e-05
-4.10413e-05
-4.61482e-05
-4.97972e-05
-2.62482e-05
-4.25194e-05
-0.000133343
-9.24744e-05
-0.000101694
-0.000117329
-0.000136189
-0.000159118
-0.000187462
-0.000223186
-0.000269298
-0.000330711
-0.000415806
-0.000540144
-0.000735663
-0.00107074
-0.00167753
-0.00272386
-0.00437306
-0.014406
-0.679271
-0.685196
0
0
0
0
0
0
0
0
0
0
0
0
0
0
0
0
0
0
0
0
0
0
0
0
0
0
0
0
0
0
0
0
0
0
0
0
0
0
0.236659
-0.465431
0
0
0
0
0
0
0
0
0
0
0
0
0
0
0
0
0
0
-0.000401871
0
0
-5.26627e-05
0
0
0
0
0
0
0
0
0
0
0
0
0
0
0
0
0
0
0
0
0
0
0
0
0
0
0
0
0
0
0
0
0
0
0
0.000423072
-0.0078869
-0.0131633
-0.0128025
-0.00713497
0.000458436
0
0
0
0
0
0
0
0
0
0
0
0
0
0
0
0
0
0
0
0
0
0
0
0
0
0
0
0
0
0
0
0
0
0
-0.000976858
-0.0157829
-0.0218413
-0.0207836
-0.0135124
5.41777e-06
0
0
0
0
0
0
0
0
0
0
0
0
0
0
0
0
0
0
0
0
0
0
0
0
0
0
0
0
0
0
0
0
0
0
-0.00398669
-0.0223587
-0.0276517
-0.0249786
-0.0160153
7.56182e-05
0
0
0
0
0
0
0
0
0
0
0
0
0
0
0
0
0
0
0
0
0
0
0
0
0
0
0
0
0
0
0
0
0
0
-0.00977147
-0.0324696
-0.0315318
-0.0254875
-0.0156871
2.61867e-05
0
0
0
0
0
0
0
0
0
0
0
0
0
0
0
0
0
0
0
0
0
0
0
0
0
0
0
0
0
0
0
0
0
0
-0.0773035
-0.0582575
-0.0310652
-0.0198164
-0.0113275
-0.000151366
0
0
0
0
0
0
0
0
0
0
0
0
0
0
0
0
0
0
0
0
0
0
0
0
0
0
0
0
0
0
0
0
0
0
0
-0.0840656
-0.00606364
-0.00190307
-9.21853e-05
0
0
0
0
0
0
0
0
0
0
0
0
0
0
0
0
0
0
0
0
0
0
0
0
0
0
0
0
0
0
0
0
0
0
0
0
0
0
0
0
0
0
0
0
0
0
0
0
0
0
0
0
0
0
0
0
0
0
0
0
0
0
0
0
0
0
0
0
0
0
0
0
0
0
0
0
0
0
0
0
0
0
0
0
0
0
0
0
0
0
0
0
0
0
0
0
0
0
0
0
0
0
0
0
0
0
0
0
0
0
0
0
0
0
0
0
0
0
0
0
0
0
0
0
0
0
0
0
0
0
0
0
0
0
0
0
0
0
0
0
0
0
0
0
0
0
0
0
0
0
0
0
0
0
0
0
0
0
0
0
0
0
0
0
0
0
0
0
0
0
0
0
0
0
0
0
0
0
0
0
0
0
0
0
0
0
0
0
0
0
0
0
0
0
0
0
0
0
0
0
0
0
0
0
0
0
0
0
0
0
0
0
0
0
0
0
0
0
0
0
0
0
0
0
0
0
0
0
0
0
0
0
0
0
0
0
0
0
0
0
0
0
0
0
0
0
0
0
0
0
0
0
0
0
0
0
0
0
0
0
0
0
0
0
0
0
0
0
0
0
0
0
0
0
0
0
0
0
0
0
0
0
0
0
0
0
0
0
0
0
0
0
0
0
0
0
0
0
0
0
0
0
0
0
0
0
0
0
0
0
0
0
0
0
0
0
0
0
0
0
0
0
0
0
0
0
0
0
0
0
0
0
0
0
0
0
0
0
SCALARS rhs double 1
LOOKUP_TABLE default
-4.62549
-4.68084
-4.68256
-4.68377
-4.68482
-4.68572
-4.68648
-4.68712
-4.68764
-4.68805
-4.68836
-4.68859
-4.68873
-4.6888
-4.68881
-4.68877
-4.68867
-4.68854
-4.68839
-4.68821
-4.68801
-4.68782
-4.68763
-4.68746
-4.68731
-4.68721
-4.68715
-4.68716
-4.68725
-4.68743
-4.68771
-4.68813
-4.68871
-4.6895
-4.69064
-4.69241
-4.69482
-4.69198
-4.73386
-5.39023
0.317447
0.26541
0.264863
0.264676
0.264519
0.264388
0.264283
0.264199
0.264137
0.264091
0.264064
0.26405
0.264049
0.264057
0.264073
0.264095
0.26412
0.264146
0.264169
0.264187
0.264196
0.264192
0.26417
0.264126
0.264053
0.263945
0.263793
0.263589
0.263324
0.262986
0.262564
0.262047
0.261419
0.260654
0.259706
0.258524
0.257821
0.265542
0.251478
-0.394846
0.313149
0.263719
0.263218
0.263057
0.262921
0.26281
0.262718
0.262648
0.262594
0.262557
0.262533
0.262522
0.262521
0.262528
0.262541
0.26256
0.262579
0.262599
0.262615
0.262625
0.262626
0.262614
0.262584
0.262531
0.262449
0.262331
0.26217
0.261956
0.261679
0.261331
0.260902
0.260386
0.259781
0.259096
0.258352
0.25765
0.258072
0.268452
0.259992
-0.295527
0.308571
0.262243
0.261786
0.261646
0.261529
0.261432
0.261352
0.261292
0.261245
0.261214
0.261192
0.261183
0.261181
0.261187
0.261198
0.261212
0.261227
0.261241
0.261251
0.261254
0.261248
0.261228
0.26119
0.261129
0.261038
0.260911
0.26074
0.260514
0.260224
0.259861
0.259418
0.258892
0.258296
0.257664
0.257074
0.256724
0.257773
0.267967
0.255602
-0.254919
0.303443
0.26067
0.260262
0.260144
0.260046
0.259964
0.259899
0.259848
0.25981
0.259783
0.259767
0.259759
0.259758
0.259762
0.259771
0.259781
0.259791
0.259799
0.259803
0.2598
0.259787
0.259759
0.259713
0.259643
0.259544
0.259407
0.259223
0.258983
0.258676
0.258291
0.257822
0.257267
0.256645
0.256007
0.255463
0.255268
0.256426
0.263006
0.230204
-0.273001
0.297838
0.259021
0.258665
0.258571
0.258492
0.258427
0.258376
0.258336
0.258307
0.258286
0.258274
0.258268
0.258268
0.258271
0.258277
0.258284
0.25829
0.258293
0.258291
0.258281
0.258261
0.258226
0.258172
0.258093
0.257984
0.257836
0.257639
0.257383
0.257054
0.256639
0.256129
0.255518
0.254821
0.254087
0.253429
0.253106
0.253853
0.25409
0.184141
-0.349709
0.291835
0.257316
0.257015
0.256946
0.256888
0.256841
0.256804
0.256775
0.256755
0.256741
0.256734
0.25673
0.256731
0.256734
0.256738
0.256741
0.256743
0.256741
0.256733
0.256717
0.25669
0.256647
0.256586
0.256499
0.256379
0.25622
0.256009
0.255733
0.255378
0.254924
0.254356
0.253657
0.252825
0.251884
0.250907
0.250091
0.250001
0.244257
0.132126
-0.464746
0.285513
0.255578
0.255334
0.255289
0.255253
0.255223
0.255201
0.255185
0.255173
0.255167
0.255164
0.255164
0.255166
0.255168
0.25517
0.255171
0.255169
0.255162
0.255149
0.255127
0.255093
0.255043
0.254974
0.254878
0.254749
0.254578
0.254352
0.254055
0.253669
0.253169
0.252527
0.251708
0.250679
0.24941
0.247882
0.246163
0.245048
0.240284
0.102985
-0.572996
0.278953
0.253826
0.253642
0.253621
0.253606