# vtk DataFile Version 4.0
Nusif Fluid VTK output
ASCII
DATASET STRUCTURED_POINTS
DIMENSIONS 40 30 1
ORIGIN 0 0 0 
SPACING 0.2 0.2 1
POINT_DATA 1200 

VECTORS velocity double
-0.000217246 -0.000265547  0
-0.00059151 -0.000264439  0
-0.000902923 -0.000265707  0
-0.00120595 -0.000269369  0
-0.00149381 -0.000276748  0
-0.00175873 -0.000290705  0
-0.00198736 -0.000311989  0
-0.00216023 -0.000343976  0
-0.00225322 -0.000390339  0
-0.00223406 -0.000454954  0
-0.00206209 -0.00054209  0
-0.0016886 -0.000655662  0
-0.00105811 -0.000798585  0
-0.000111825 -0.000971375  0
0.00120688 -0.00117113  0
0.00294462 -0.00139057  0
0.00512873 -0.00161766  0
0.00775886 -0.00183675  0
0.0108021 -0.0020311  0
0.0141946 -0.00218639  0
0.0178502 -0.00229461  0
0.0216753 -0.00235633  0
0.0255861 -0.00238078  0
0.0295236 -0.00238342  0
0.0334624 -0.00238239  0
0.0374118 -0.00239439  0
0.041411 -0.00243237  0
0.0455194 -0.002504  0
0.0498077 -0.00261236  0
0.0543487 -0.00275696  0
0.0592131 -0.0029359  0
0.0644687 -0.00314835  0
0.0701862 -0.0033978  0
0.0764524 -0.00369721  0
0.0833958 -0.00407508  0
0.0911971 -0.00455526  0
0.0997934 -0.00486999  0
0.106511 -0.002677  0
0.0971126 0.0112467  0
0.0427257 0.0423111  0
-0.000216373 -0.00073436  0
-0.000591974 -0.000732649  0
-0.000907936 -0.000736696  0
-0.00121701 -0.000747888  0
-0.00151515 -0.000770621  0
-0.00179398 -0.000810253  0
-0.00204066 -0.000871922  0
-0.00223861 -0.000965298  0
-0.00236424 -0.00110093  0
-0.00238587 -0.001291  0
-0.00226286 -0.00154895  0
-0.00194515 -0.0018873  0
-0.00137391 -0.00231563  0
-0.000484559 -0.00283695  0
0.000787483 -0.0034435  0
0.00249796 -0.00411365  0
0.00468245 -0.0048105  0
0.00734527 -0.0054846  0
0.0104523 -0.00608179  0
0.0139309 -0.00655556  0
0.0176801 -0.00687944  0
0.021589 -0.00705521  0
0.0255588 -0.00711278  0
0.0295218 -0.00710246  0
0.0334511 -0.00708235  0
0.0373615 -0.00710544  0
0.0413009 -0.00721142  0
0.0453389 -0.00742322  0
0.0495541 -0.00774856  0
0.0540244 -0.00818422  0
0.058821 -0.00872197  0
0.0640063 -0.00935567  0
0.0696364 -0.0100905  0
0.0757686 -0.0109556  0
0.0824717 -0.0120158  0
0.089801 -0.0132979  0
0.0974498 -0.0139252  0
0.102485 -0.00692804  0
0.091511 0.0343179  0
0.0396623 0.123923  0
-0.000216224 -0.00113688  0
-0.000594747 -0.00113519  0
-0.000918415 -0.001141  0
-0.00123993 -0.00115818  0
-0.00155618 -0.00119276  0
-0.00186004 -0.00125137  0
-0.00214242 -0.00134589  0
-0.00238926 -0.00149066  0
-0.00257895 -0.00170382  0
-0.00268213 -0.00200675  0
-0.00265842 -0.00242329  0
-0.00245536 -0.00297727  0
-0.00200795 -0.00368835  0
-0.00123991 -0.00456567  0
-6.99572e-05 -0.00560055  0
0.00157748 -0.00675843  0
0.00375759 -0.00797458  0
0.00648735 -0.00915763  0
0.00973093 -0.0102041  0
0.0133967 -0.0110226  0
0.0173503 -0.0115603  0
0.0214417 -0.0118198  0
0.0255385 -0.0118599  0
0.0295536 -0.0117785  0
0.0334589 -0.011686  0
0.0372821 -0.0116804  0
0.0410924 -0.0118313  0
0.0449813 -0.0121753  0
0.0490455 -0.0127208  0
0.0533741 -0.0134558  0
0.0580406 -0.0143584  0
0.0630991 -0.0154079  0
0.0685838 -0.0165978  0
0.0745094 -0.0179508  0
0.0808678 -0.0195266  0
0.087587 -0.0212802  0
0.0941987 -0.0216481  0
0.0978401 -0.00932663  0
0.0863525 0.0577338  0
0.0372004 0.200063  0
-0.000215782 -0.00153079  0
-0.000597539 -0.00152712  0
-0.000931351 -0.0015318  0
-0.00126886 -0.00154961  0
-0.00160835 -0.00158672  0
-0.00194711 -0.00165393  0
-0.00227994 -0.00176679  0
-0.00259653 -0.00194493  0
-0.00288032 -0.00221423  0
-0.00310529 -0.0026063  0
-0.00323339 -0.00315767  0
-0.00321034 -0.00390763  0
-0.00296237 -0.0048919  0
-0.00239672 -0.00613409  0
-0.00140525 -0.00763203  0
0.0001239 -0.0093424  0
0.00228318 -0.0111692  0
0.00511571 -0.0129646  0
0.00858726 -0.0145516  0
0.0125746 -0.0157678  0
0.0168827 -0.0165165  0
0.0212891 -0.016801  0
0.0255999 -0.0167258  0
0.0296953 -0.0164628  0
0.0335488 -0.0162  0
0.0372158 -0.0160961  0
0.0408054 -0.0162549  0
0.0444486 -0.0167231  0
0.0482729 -0.0175008  0
0.0523863 -0.0185569  0
0.0568683 -0.0198448  0
0.061766 -0.0213166  0
0.0670906 -0.0229373  0
0.0728142 -0.0246993  0
0.0788599 -0.0266212  0
0.0850599 -0.0285435  0
0.0908709 -0.0282462  0
0.0936506 -0.0105884  0
0.0823385 0.0803565  0
0.035474 0.272018  0
-0.000213986 -0.00191598  0
-0.000597646 -0.00190849  0
-0.000941469 -0.00190784  0
-0.00129498 -0.00191813  0
-0.00166053 -0.00194708  0
-0.00204011 -0.00200822  0
-0.00243342 -0.00211919  0
-0.00283671 -0.00230518  0
-0.00324028 -0.00259913  0
-0.00362558 -0.00304358  0
-0.0039599 -0.0036908  0
-0.00418963 -0.00460052  0
-0.00423434 -0.00583458  0
-0.00398002 -0.00744408  0
-0.0032783 -0.00944837  0
-0.0019597 -0.0118071  0
0.00013535 -0.0143922  0
0.00310486 -0.0169773  0
0.00692768 -0.0192672  0
0.0114318 -0.0209776  0
0.0163169 -0.0219338  0
0.0212322 -0.0221391  0
0.0258766 -0.0217767  0
0.0300792 -0.0211438  0
0.0338254 -0.0205523  0
0.037227 -0.020246  0
0.0404652 -0.0203662  0
0.0437353 -0.0209585  0
0.0472117 -0.0219993  0
0.05103 -0.023423  0
0.0552806 -0.0251442  0
0.0600061 -0.0270733  0
0.0651986 -0.0291304  0
0.0707942 -0.0312578  0
0.0766637 -0.0334104  0
0.0825755 -0.0352986  0
0.0879584 -0.0341173  0
0.0903921 -0.0113631  0
0.0796075 0.101795  0
0.0344214 0.341197  0
-0.000209986 -0.00229485  0
-0.00059164 -0.00228162  0
-0.000941664 -0.00227007  0
-0.00130826 -0.00226401  0
-0.00169847 -0.00227257  0
-0.00211922 -0.00230913  0
-0.00257692 -0.00239368  0
-0.00307645 -0.00255435  0
-0.00361871 -0.00283048  0
-0.00419711 -0.00327519  0
-0.0047904 -0.00395808  0
-0.00535404 -0.00496602  0
-0.00580594 -0.00639908  0
-0.00601054 -0.00835629  0
-0.00576829 -0.0109071  0
-0.00482 -0.0140425  0
-0.00288706 -0.0176125  0
0.000240632 -0.021282  0
0.00458682 -0.0245594  0
0.00990794 -0.0269387  0
0.0157212 -0.0280991  0
0.0214463 -0.028042  0
0.0265953 -0.027095  0
0.0309198 -0.0257802  0
0.0344466 -0.0246162  0
0.0374019 -0.0239663  0
0.0400929 -0.0240021  0
0.0428156 -0.0247422  0
0.0458084 -0.0261116  0
0.0492413 -0.0279885  0
0.0532179 -0.0302323  0
0.0577794 -0.0326984  0
0.0629034 -0.0352478  0
0.0684987 -0.0377573  0
0.0743998 -0.0401073  0
0.0803461 -0.0418857  0
0.0857867 -0.0397795  0
0.0884738 -0.0122477  0
0.0784601 0.122052  0
0.0341275 0.409033  0
-0.000202629 -0.00267261  0
-0.000575337 -0.00265121  0
-0.000924601 -0.00262309  0
-0.00129765 -0.00259218  0
-0.00170568 -0.00256661  0
-0.00216124 -0.0025589  0
-0.00267863 -0.00258873  0
-0.00327348 -0.00268494  0
-0.00396125 -0.00289002  0
-0.00475327 -0.00326526  0
-0.00565066 -0.00389708  0
-0.00663064 -0.00490353  0
-0.00762466 -0.00643609  0
-0.00848812 -0.00867165  0
-0.00896452 -0.0117784  0
-0.00866508 -0.01584  0
-0.00710429 -0.02073  0
-0.0038421 -0.025976  0
0.00127101 -0.0307465  0
0.00789207 -0.0341156  0
0.0152137 -0.0354789  0
0.0222365 -0.0348318  0
0.0281385 -0.0327777  0
0.032558 -0.0302627  0
0.0356392 -0.0281626  0
0.0378411 -0.0269978  0
0.0396894 -0.0269304  0
0.0416258 -0.0278931  0
0.0439653 -0.0297129  0
0.0469091 -0.0321836  0
0.0505706 -0.0350949  0
0.0549906 -0.0382367  0
0.0601372 -0.0413992  0
0.0658962 -0.0443794  0
0.0720698 -0.0469789  0
0.0783894 -0.048699  0
0.0843848 -0.0458211  0
0.0879621 -0.0138894  0
0.078957 0.141294  0
0.0346056 0.477057  0
-0.000190544 -0.00305686  0
-0.000544709 -0.00302493  0
-0.000883405 -0.00297561  0
-0.00125194 -0.00291184  0
-0.00166522 -0.00283922  0
-0.00214135 -0.0027679  0
-0.00270293 -0.00271402  0
-0.00337782 -0.0027033  0
-0.00419915 -0.00277605  0
-0.00520411 -0.00299536  0
-0.00642864 -0.00345844  0
-0.0078931 -0.00431145  0
-0.00957408 -0.0057669  0
-0.0113529 -0.00811267  0
-0.0129367 -0.0116917  0
-0.0137716 -0.0168061  0
-0.0130231 -0.0234882  0
-0.00977595 -0.0311426  0
-0.00355268 -0.0383321  0
0.0051757 -0.0432953  0
0.0150051 -0.044866  0
0.0241474 -0.0430252  0
0.0311642 -0.0389182  0
0.0355347 -0.0343269  0
0.0377112 -0.0307704  0
0.038634 -0.0289286  0
0.0391976 -0.0288252  0
0.040033 -0.0301837  0
0.041518 -0.03266  0
0.0438597 -0.035935  0
0.0471656 -0.0397236  0
0.0514763 -0.0437512  0
0.0567598 -0.047727  0
0.0628794 -0.0513422  0
0.0695739 -0.054296  0
0.0765124 -0.0560517  0
0.0833216 -0.0526849  0
0.0881941 -0.0168875  0
0.0805026 0.159576  0
0.03563 0.546586  0
-0.000172654 -0.0034573  0
-0.000496666 -0.00341338  0
-0.000812263 -0.00333967  0
-0.00116139 -0.00323683  0
-0.00156174 -0.00310718  0
-0.00203598 -0.00295599  0
-0.00261401 -0.00279279  0
-0.00333558 -0.00263468  0
-0.00425323 -0.00251214  0
-0.00543553 -0.00247854  0
-0.00696668 -0.00262636  0
-0.008939 -0.0031137  0
-0.0114258 -0.00420412  0
-0.0144127 -0.00631717  0
-0.0176578 -0.0100662  0
-0.0204614 -0.0162015  0
-0.0214405 -0.0252712  0
-0.0186856 -0.036771  0
-0.0108815 -0.0481407  0
0.00135852 -0.0558648  0
0.0154844 -0.0576612  0
0.0281846 -0.0534816  0
0.0368372 -0.0455397  0
0.0407063 -0.037353  0
0.0410384 -0.0316603  0
0.0397878 -0.0291179  0
0.0384364 -0.0292549  0
0.0377938 -0.0313533  0
0.0382179 -0.0348058  0
0.0398511 -0.0391703  0
0.0427625 -0.0441114  0
0.0469984 -0.0493157  0
0.0525588 -0.0544116  0
0.0593037 -0.0589271  0
0.0668306 -0.0623371  0
0.0744866 -0.0640095  0
0.0817352 -0.0601897  0
0.0874302 -0.0213554  0
0.0813897 0.17637  0
0.0365676 0.618081  0
-0.00014844 -0.00388543  0
-0.000429412 -0.00382923  0
-0.000707386 -0.00372984  0
-0.00101934 -0.00358517  0
-0.00138405 -0.00339332  0
-0.0018265 -0.00315271  0
-0.00238115 -0.00286299  0
-0.00309656 -0.00252714  0
-0.00404218 -0.00215603  0
-0.00531742 -0.00177697  0
-0.00706276 -0.00145145  0
-0.00946961 -0.00130966  0
-0.0127761 -0.00161546  0
-0.0172133 -0.00288246  0
-0.022819 -0.00605135  0
-0.0289743 -0.0126593  0
-0.0335898 -0.0246214  0
-0.032642 -0.0425266  0
-0.0226446 -0.0615903  0
-0.00434035 -0.0743633  0
0.0173962 -0.0764287  0
0.0362767 -0.0676978  0
0.047302 -0.0524035  0
0.0494249 -0.0378824  0
0.0459592 -0.0293978  0
0.0410551 -0.026626  0
0.0369818 -0.0277222  0
0.0345072 -0.0311686  0
0.0337336 -0.0360407  0
0.0345974 -0.0418318  0
0.0370786 -0.0482416  0
0.0412561 -0.0549977  0
0.047257 -0.0616892  0
0.0550639 -0.067599  0
0.0640977 -0.0716231  0
0.0727433 -0.072422  0
0.0790678 -0.0667475  0
0.0829548 -0.0257778  0
0.0783309 0.190058  0
0.036099 0.690048  0
-0.000117816 -0.00435372  0
-0.000342367 -0.00428617  0
-0.000567332 -0.0041624  0
-0.00082286 -0.00397765  0
-0.00112646 -0.00372513  0
-0.00150211 -0.00339547  0
-0.00198415 -0.00297626  0
-0.00262337 -0.00245202  0
-0.00349687 -0.00180503  0
-0.00472374 -0.00101902  0
-0.00649095 -9.0183e-05  0
-0.00909322 0.000944629  0
-0.0129872 0.00193695  0
-0.0188355 0.00245651  0
-0.0274192 0.00140451  0
-0.0390135 -0.00376085  0
-0.0512868 -0.0180273  0
-0.0556338 -0.0471186  0
-0.0427036 -0.0813241  0
-0.0134526 -0.103583  0
0.0222073 -0.106003  0
0.0522781 -0.0884715  0
0.0667177 -0.0584904  0
0.0637819 -0.0323771  0
0.0523777 -0.0214269  0
0.0415651 -0.0202735  0
0.0340206 -0.0238501  0
0.0296351 -0.0295736  0
0.0277588 -0.0363787  0
0.0279148 -0.0439063  0
0.0299447 -0.0520707  0
0.0340178 -0.0608112  0
0.0405969 -0.0698474  0
0.0502254 -0.0782669  0
0.0626314 -0.0837848  0
0.0741948 -0.0818584  0
0.0772797 -0.0681099  0
0.0722314 -0.0246454  0
0.0672051 0.197182  0
0.0327583 0.758208  0
-8.03881e-05 -0.00487539  0
-0.00023425 -0.00479864  0
-0.00038985 -0.00465477  0
-0.000568561 -0.00443662  0
-0.000783994 -0.00413288  0
-0.00105521 -0.00372675  0
-0.00141032 -0.00319384  0
-0.00189252 -0.00249919  0
-0.0025705 -0.0015928  0
-0.00355736 -0.000404097  0
-0.00504656 0.00116456  0
-0.00738173 0.00324041  0
-0.0111942 0.00596057  0
-0.0176653 0.00936485  0
-0.0289442 0.012971  0
-0.0483021 0.0142362  0
-0.0768411 0.00339818  0
-0.0959423 -0.0464874  0
-0.0793188 -0.112902  0
-0.0290612 -0.152907  0
0.0330178 -0.155811  0
0.0844939 -0.121602  0
0.103909 -0.0606045  0
0.0869013 -0.0117065  0
0.0585151 -0.00369354  0
0.0391766 -0.00924205  0
0.0283497 -0.0178964  0
0.0228038 -0.0269822  0
0.0204307 -0.0361071  0
0.0202063 -0.0454959  0
0.0218429 -0.0555339  0
0.0256659 -0.0666299  0
0.0327436 -0.0790708  0
0.0451804 -0.0924931  0
0.065522 -0.103689  0
0.0870738 -0.0964495  0
0.0822364 -0.0531464  0
0.0496538 -0.00336275  0
0.040713 0.188478  0
0.0252055 0.815477  0
-3.32224e-05 -0.00546715  0
-9.6284e-05 -0.00538456  0
-0.000160428 -0.00522767  0
-0.000236562 -0.00498769  0
-0.000331967 -0.00465008  0
-0.000457043 -0.00419261  0
-0.000627558 -0.00358191  0
-0.00086849 -0.00276778  0
-0.00122096 -0.00167378  0
-0.00175606 -0.000181347  0
-0.00260389 0.00189854  0
-0.00401959 0.00487691  0
-0.00654763 0.00928406  0
-0.0114717 0.0160557  0
-0.0221661 0.0268725  0
-0.0482862 0.0444311  0
-0.112547 0.0646198  0
-0.175106 -0.0274346  0
-0.154922 -0.170152  0
-0.0592067 -0.243021  0
0.0581844 -0.246557  0
0.155561 -0.181096  0
0.182474 -0.0488228  0
0.123817 0.0507972  0
0.0570074 0.0276203  0
0.0296869 0.0047238  0
0.0190219 -0.0117503  0
0.0147197 -0.0246603  0
0.0132536 -0.0359699  0
0.0134268 -0.0469621  0
0.0149978 -0.0586555  0
0.0184128 -0.0721264  0
0.0252431 -0.0888622  0
0.0400087 -0.111283  0
0.0745686 -0.141177  0
0.113312 -0.120288  0
0.0807444 0.00740952  0
-0.00879703 0.0571677  0
-0.013166 0.13987  0
0.0125251 0.852514  0
2.716e-05 -0.00581017  0
8.17598e-05 -0.00572593  0
0.000137148 -0.00556516  0
0.000193666 -0.00531836  0
0.000251512 -0.0049698  0
0.000310726 -0.00449511  0
0.000370916 -0.00385728  0
0.000431034 -0.00299993  0
0.00048879 -0.00183536  0
0.000539489 -0.000223886  0
0.000573789 0.00206605  0
0.000572154 0.00543815  0
0.000490239 0.0106441  0
0.000191999 0.0192292  0
-0.00132948 0.0352262  0
-0.0180883 0.0782675  0
-0.186191 0.262457  0
-0.392966 0.0430237  0
-0.347468 -0.30768  0
-0.12567 -0.424394  0
0.118786 -0.428418  0
0.341266 -0.320474  0
0.412105 -0.00857554  0
0.215746 0.264536  0
0.02959 0.0661607  0
0.00913482 0.0132712  0
0.00800776 -0.00919394  0
0.00868004 -0.0242752  0
0.00987311 -0.0367705  0
0.0115616 -0.0487119  0
0.0139276 -0.0615315  0
0.0173879 -0.0768144  0
0.0227894 -0.0970945  0
0.0315403 -0.127255  0
0.0369644 -0.165875  0
-0.0121884 -0.150275  0
-0.0440014 0.0768858  0
-0.0266617 0.0994057  0
0.0423724 0.0319259  0
0.0557033 0.920049  0
-1.48221e-05 -0.00291866  0
-4.03528e-05 -0.00287668  0
-6.60701e-05 -0.00279655  0
-0.000103347 -0.00267346  0
-0.00015943 -0.00249954  0
-0.000245046 -0.00226252  0
-0.000376705 -0.00194377  0
-0.000581107 -0.0015149  0
-0.000902763 -0.000931626  0
-0.00141942 -0.000123348  0
-0.0022752 0.00102728  0
-0.00375702 0.00272564  0
-0.00651347 0.00535645  0
-0.0127107 0.00972935  0
-0.0384673 0.0182591  0
-0.207376 0.0468671  0
-1.24238 0.64577  0
-1.51228 -0.520748  0
-0.623593 -0.679138  0
-0.179628 -0.720089  0
0.164746 -0.722939  0
0.599095 -0.684163  0
1.45131 -0.568972  0
1.21784 0.590832  0
0.238073 0.0426507  0
0.0564762 0.00729283  0
0.0276806 -0.00469068  0
0.0227287 -0.0123801  0
0.0223391 -0.0187393  0
0.0242808 -0.0248461  0
0.028526 -0.0314586  0
0.03614 -0.0394445  0
0.0496847 -0.0502107  0
0.064267 -0.0663397  0
0.053562 -0.0829373  0
0.0184822 -0.0829373  0
-0.0133308 0.0497029  0
0.0168268 -0.308527  0
0.0444444 -0.0215843  0
0.0142868 0.989346  0
0 0  0
0 0  0
0 0  0
0 0  0
0 0  0
0 0  0
0 0  0
0 0  0
0 0  0
0 0  0
0 0  0
0 0  0
0 0  0
0 0  0
0 0  0
0 0  0
-0.0575438 -0.110683  0
-0.127747 -1.12565  0
-0.111813 -0.979552  0
-0.0451401 -0.931703  0
0.0325823 -0.934808  0
0.110015 -0.985459  0
0.140014 -1.15058  0
0.0661113 -0.190087  0
0 0  0
0 0  0
0 0  0
0 0  0
0 0  0
0 0  0
0 0  0
0 0  0
0 0  0
0 0  0
0 0  0
0 0  0
0 0  0
-0.325216 -0.361087  0
-0.650432 -0.00571347  0
-0.325216 0.67807  0
0 0  0
0 0  0
0 0  0
0 0  0
0 0  0
0 0  0
0 0  0
0 0  0
0 0  0
0 0  0
0 0  0
0 0  0
0 0  0
0 0  0
0 0  0
0 0  0
-0.049954 -1.05732  0
-0.111079 -1.10182  0
-0.101266 -1.02983  0
-0.0459592 -1.0048  0
0.024844 -1.01163  0
0.0909364 -1.05355  0
0.120135 -1.14238  0
0.0598616 -1.0997  0
0 0  0
0 0  0
0 0  0
0 0  0
0 0  0
0 0  0
0 0  0
0 0  0
0 0  0
0 0  0
0 0  0
0 0  0
0 0  0
-0.325216 -0.00285673  0
-0.829716 -0.00285673  0
-0.5045 0.176427  0
0 0  0
0 0  0
0 0  0
0 0  0
0 0  0
0 0  0
0 0  0
0 0  0
0 0  0
0 0  0
0 0  0
0 0  0
0 0  0
0 0  0
0 0  0
0 0  0
-0.0130403 -1.01865  0
-0.0453714 -1.07136  0
-0.0613755 -1.05479  0
-0.0392973 -1.05861  0
-1.57804e-05 -1.06929  0
0.0336351 -1.09702  0
0.0468345 -1.142  0
0.0234364 -1.08418  0
0 0  0
0 0  0
0 0  0
0 0  0
0 0  0
0 0  0
0 0  0
0 0  0
0 0  0
0 0  0
0 0  0
0 0  0
0 0  0
0 0  0
0 0  0
0 0  0
0 0  0
0 0  0
0 0  0
0 0  0
0 0  0
0 0  0
0 0  0
0 0  0
0 0  0
0 0  0
0 0  0
0 0  0
0 0  0
0 0  0
0 0  0
0 0  0
0.00275399 -1.04975  0
-0.0264431 -1.02012  0
-0.0573872 -1.05978  0
-0.0441492 -1.09032  0
-0.0196064 -1.10279  0
-0.00160917 -1.11656  0
0.00407624 -1.14204  0
0.00203812 -1.12064  0
0 0  0
0 0  0
0 0  0
0 0  0
0 0  0
0 0  0
0 0  0
0 0  0
0 0  0
0 0  0
0 0  0
0 0  0
0 0  0
0 0  0
0 0  0
0 0  0
0 0  0
0 0  0
0 0  0
0 0  0
0 0  0
0 0  0
0 0  0
0 0  0
0 0  0
0 0  0
0 0  0
0 0  0
0 0  0
0 0  0
0 0  0
0 0  0
-0.0426733 -1.03359  0
-0.0853465 -0.988166  0
-0.0676115 -1.07887  0
-0.0438946 -1.10888  0
-0.0332032 -1.12016  0
-0.0284936 -1.12259  0
-0.0122087 -1.13232  0
0.00203812 -0.57102  0
0 0  0
0 0  0
0 0  0
0 0  0
0 0  0
0 0  0
0 0  0
0 0  0
0 0  0
0 0  0
0 0  0
0 0  0
0 0  0
0 0  0
0 0  0
0 0  0
0 0  0
0 0  0
0 0  0
0 0  0
0 0  0
0 0  0
0 0  0
0 0  0
0 0  0
0 0  0
0 0  0
0 0  0
0 0  0
0 0  0
0 0  0
0 0  0
-0.0426733 -0.494083  0
-0.0311267 -0.494083  0
-0.00426232 -0.548303  0
-0.0297645 -0.557432  0
-0.02934 -0.562433  0
-0.0296312 -0.561295  0
-0.0142468 -0.561295  0
0 0  0
0 0  0
0 0  0
0 0  0
0 0  0
0 0  0
0 0  0
0 0  0
0 0  0
0 0  0
0 0  0
0 0  0
0 0  0
0 0  0
0 0  0
0 0  0
0 0  0
0 0  0
0 0  0
0 0  0
0 0  0
0 0  0
0 0  0
0 0  0
0 0  0
0 0  0
0 0  0
0 0  0
0 0  0
0 0  0
0 0  0
0 0  0
0 0  0
0 0  0
0 0  0
0 0  0
0 0  0
0 0  0
0 0  0
0 0  0
0 0  0
0 0  0
0 0  0
0 0  0
0 0  0
0 0  0
0 0  0
0 0  0
0 0  0
0 0  0
0 0  0
0 0  0
0 0  0
0 0  0
0 0  0
0 0  0
0 0  0
0 0  0
0 0  0
0 0  0
0 0  0
0 0  0
0 0  0
0 0  0
0 0  0
0 0  0
0 0  0
0 0  0
0 0  0
0 0  0
0 0  0
0 0  0
0 0  0
0 0  0
0 0  0
0 0  0
0 0  0
0 0  0
0 0  0
0 0  0
0 0  0
0 0  0
0 0  0
0 0  0
0 0  0
0 0  0
0 0  0
0 0  0
0 0  0
0 0  0
0 0  0
0 0  0
0 0  0
0 0  0
0 0  0
0 0  0
0 0  0
0 0  0
0 0  0
0 0  0
0 0  0
0 0  0
0 0  0
0 0  0
0 0  0
0 0  0
0 0  0
0 0  0
0 0  0
0 0  0
0 0  0
0 0  0
0 0  0
0 0  0
0 0  0
0 0  0
0 0  0
0 0  0
0 0  0
0 0  0
0 0  0
0 0  0
0 0  0
0 0  0
0 0  0
0 0  0
0 0  0
0 0  0
0 0  0
0 0  0
0 0  0
0 0  0
0 0  0
0 0  0
0 0  0
0 0  0
0 0  0
0 0  0
0 0  0
0 0  0
0 0  0
0 0  0
0 0  0
0 0  0
0 0  0
0 0  0
0 0  0
0 0  0
0 0  0
0 0  0
0 0  0
0 0  0
0 0  0
0 0  0
0 0  0
0 0  0
0 0  0
0 0  0
0 0  0
0 0  0
0 0  0
0 0  0
0 0  0
0 0  0
0 0  0
0 0  0
0 0  0
0 0  0
0 0  0
0 0  0
0 0  0
0 0  0
0 0  0
0 0  0
0 0  0
0 0  0
0 0  0
0 0  0
0 0  0
0 0  0
0 0  0
0 0  0
0 0  0
0 0  0
0 0  0
0 0  0
0 0  0
0 0  0
0 0  0
0 0  0
0 0  0
0 0  0
0 0  0
0 0  0
0 0  0
0 0  0
0 0  0
0 0  0
0 0  0
0 0  0
0 0  0
0 0  0
0 0  0
0 0  0
0 0  0
0 0  0
0 0  0
0 0  0
0 0  0
0 0  0
0 0  0
0 0  0
0 0  0
0 0  0
0 0  0
0 0  0
0 0  0
0 0  0
0 0  0
0 0  0
0 0  0
0 0  0
0 0  0
0 0  0
0 0  0
0 0  0
0 0  0
0 0  0
0 0  0
0 0  0
0 0  0
0 0  0
0 0  0
0 0  0
0 0  0
0 0  0
0 0  0
0 0  0
0 0  0
0 0  0
0 0  0
0 0  0
0 0  0
0 0  0
0 0  0
0 0  0
0 0  0
0 0  0
0 0  0
0 0  0
0 0  0
0 0  0
0 0  0
0 0  0
0 0  0
0 0  0
0 0  0
0 0  0
0 0  0
0 0  0
0 0  0
0 0  0
0 0  0
0 0  0
0 0  0
0 0  0
0 0  0
0 0  0
0 0  0
0 0  0
0 0  0
0 0  0
0 0  0
0 0  0
0 0  0
0 0  0
0 0  0
0 0  0
0 0  0
0 0  0
0 0  0
0 0  0
0 0  0
0 0  0
0 0  0
0 0  0
0 0  0
0 0  0
0 0  0
0 0  0
0 0  0
0 0  0
0 0  0
0 0  0
0 0  0
0 0  0
0 0  0
0 0  0
0 0  0
0 0  0
0 0  0
0 0  0
0 0  0
0 0  0
0 0  0
0 0  0
0 0  0
0 0  0
0 0  0
0 0  0
0 0  0
0 0  0
0 0  0
0 0  0
0 0  0
0 0  0
0 0  0
0 0  0
0 0  0
0 0  0
0 0  0
0 0  0
0 0  0
0 0  0
0 0  0
0 0  0
0 0  0
0 0  0
0 0  0
0 0  0
0 0  0
0 0  0
0 0  0
0 0  0
0 0  0
0 0  0
0 0  0
0 0  0
0 0  0
0 0  0
0 0  0
0 0  0
0 0  0
0 0  0
0 0  0
0 0  0
0 0  0
0 0  0
0 0  0
0 0  0
0 0  0
0 0  0
0 0  0
0 0  0
0 0  0
0 0  0
0 0  0
0 0  0
0 0  0
0 0  0
0 0  0
0 0  0
0 0  0
0 0  0
0 0  0
0 0  0
0 0  0
0 0  0
0 0  0
0 0  0
0 0  0
0 0  0
0 0  0
0 0  0
0 0  0
0 0  0
0 0  0

SCALARS pressure double 1
LOOKUP_TABLE default
2.1328
2.13592
2.13994
2.14485
2.15068
2.15735
2.16492
2.17335
2.18251
2.19238
2.2029
2.2139
2.22509
2.23618
2.24685
2.25676
2.26557
2.27291
2.27846
2.28193
2.28314
2.28203
2.2787
2.2734
2.2665
2.25845
2.24976
2.24091
2.23233
2.22439
2.21738
2.21155
2.20713
2.2043
2.2032
2.20399
2.2068
2.21179
2.21929
2.2282
1.94012
1.9431
1.94698
1.95178
1.95745
1.96405
1.97155
1.97987
1.98901
1.99898
2.00962
2.02068
2.03202
2.04336
2.05443
2.06493
2.07442
2.08247
2.08859
2.0924
2.09366
2.0923
2.08846
2.08252
2.07498
2.06638
2.05722
2.04795
2.039
2.03069
2.02338
2.01731
2.01269
2.00967
2.00841
2.00904
2.01167
2.01643
2.02366
2.03244
1.75243
1.75523
1.75896
1.76358
1.76912
1.77561
1.78298
1.79126
1.8005
1.8106
1.82134
1.83274
1.84454
1.85666
1.86884
1.88054
1.89127
1.90037
1.90724
1.91133
1.91233
1.91032
1.90567
1.89883
1.89031
1.88069
1.87052
1.86034
1.85057
1.84164
1.83381
1.82729
1.82227
1.81892
1.81734
1.81766
1.81997
1.8244
1.83118
1.83935
1.56963
1.57224
1.57575
1.58018
1.58557
1.59188
1.59914
1.60745
1.61675
1.62689
1.63803
1.6499
1.66276
1.67635
1.69002
1.70349
1.71597
1.72655
1.73416
1.73835
1.7391
1.7365
1.73079
1.72247
1.71229
1.701
1.68932
1.67779
1.66695
1.65709
1.64848
1.64131
1.63575
1.63189
1.62984
1.62979
1.63181
1.63592
1.64228
1.64991
1.39164
1.39401
1.39728
1.4015
1.40665
1.41276
1.41993
1.42818
1.43738
1.44787
1.45928
1.47237
1.48666
1.50174
1.51775
1.53375
1.5484
1.56031
1.56908
1.57416
1.57492
1.57133
1.56388
1.55341
1.5409
1.52731
1.51349
1.50021
1.48787
1.47682
1.46723
1.45925
1.45294
1.44839
1.44587
1.44542
1.4471
1.45098
1.45715
1.46446
1.21835
1.22044
1.22346
1.22739
1.23226
1.23814
1.24513
1.25312
1.26249
1.27293
1.28549
1.29954
1.31519
1.33289
1.35182
1.37032
1.3873
1.40227
1.41355
1.41978
1.42042
1.41549
1.40563
1.39201
1.37611
1.35929
1.34273
1.32715
1.31301
1.30053
1.28981
1.28084
1.27363
1.26842
1.26523
1.26426
1.26567
1.2695
1.27572
1.28298
1.04967
1.05148
1.05419
1.05778
1.06231
1.06789
1.07447
1.08234
1.09142
1.10258
1.1155
1.13061
1.14846
1.1689
1.19021
1.21225
1.23419
1.25359
1.26828
1.27643
1.27697
1.26993
1.25638
1.23816
1.21747
1.19635
1.17623
1.15791
1.14174
1.12777
1.11585
1.10584
1.09779
1.09162
1.08764
1.08608
1.08718
1.09105
1.09756
1.10507
0.885547
0.887061
0.889405
0.892598
0.896724
0.901808
0.907993
0.915396
0.92453
0.935627
0.948942
0.965269
0.985171
1.00728
1.03253
1.06038
1.08876
1.1146
1.13437
1.14529
1.14575
1.13566
1.11659
1.09148
1.06396
1.03707
1.0126
0.991275
0.973115
0.9578
0.944873
0.934046
0.92501
0.917831
0.912728
0.910356
0.911213
0.915287
0.922279
0.930326
0.725947
0.727145
0.729108
0.731879
0.735504
0.740038
0.74565
0.752582
0.761351
0.772037
0.785541
0.802713
0.823118
0.847998
0.878217
0.912949
0.950327
0.986319
1.01483
1.03063
1.03124
1.01671
0.989046
0.953426
0.916288
0.88204
0.85257
0.828082
0.808007
0.791492
0.777746
0.766073
0.755982
0.747241
0.740672
0.737171
0.737797
0.7422
0.74967
0.758426
0.570919
0.571844
0.57345
0.575764
0.578806
0.582683
0.587546
0.59379
0.601612
0.611585
0.624605
0.641058
0.661817
0.689125
0.723614
0.767533
0.818994
0.87262
0.915745
0.939348
0.941294
0.920103
0.879365
0.826893
0.774705
0.729884
0.694133
0.66643
0.644969
0.627988
0.614057
0.60197
0.590723
0.580456
0.571232
0.565276
0.565915
0.571796
0.580236
0.589993
0.420632
0.421324
0.422561
0.424353
0.426737
0.429814
0.433771
0.438886
0.445385
0.45398
0.465276
0.479851
0.499806
0.526889
0.566063
0.619805
0.693933
0.778013
0.843346
0.878315
0.880028
0.847963
0.78301
0.700066
0.626563
0.571111
0.531434
0.503126
0.482431
0.466633
0.453727
0.44201
0.430555
0.417721
0.403667
0.391958
0.394467
0.405755
0.416967
0.428656
0.275261
0.275728
0.276572
0.277797
0.279444
0.281593
0.284413
0.288036
0.292782
0.29913
0.307488
0.318866
0.33502
0.359639
0.397662
0.462032
0.564525
0.704121
0.806031
0.854055
0.85245
0.804904
0.705914
0.56865
0.4665
0.402373
0.362768
0.337412
0.320194
0.307575
0.297237
0.287571
0.276524
0.261398
0.238612
0.209386
0.21882
0.248117
0.269557
0.283706
0.134973
0.135212
0.13564
0.136262
0.137106
0.13822
0.139685
0.141575
0.144099
0.147461
0.15194
0.158281
0.167806
0.183323
0.211678
0.269444
0.397717
0.667091
0.822722
0.865458
0.860401
0.810926
0.665071
0.402796
0.272782
0.214153
0.185177
0.168933
0.15871
0.151469
0.145536
0.139611
0.13168
0.117439
0.0836662
-0.00915973
0.0234798
0.111847
0.153522
0.168194
-1.38635e-05
-1.39876e-05
-1.42742e-05
-1.46308e-05
-1.50545e-05
-1.54921e-05
-1.58154e-05
-1.58724e-05
-1.53092e-05
-1.34803e-05
-9.03216e-06
9.59235e-07
2.37668e-05
8.74206e-05
0.000476495
0.00602838
0.068814
0.702478
0.884577
0.883846
0.87554
0.860593
0.694817
0.0766755
0.00766001
0.000447582
-0.000121152
-0.000250252
-0.000355711
-0.000486961
-0.000683518
-0.00101669
-0.00162173
-0.00264297
-0.00922165
0
0
0.0244936
0.0596023
0.045988
0
0
0
0
0
0
0
0
0
0
0
0
0
0
0
0
0
0.318162
0.77607
0.780176
0.771449
0.751205
0.303777
0
0
0
0
0
0
0
0
0
0
0
0
0
0
0
-0.00817875
-0.113485
0
0
0
0
0
0
0
0
0
0
0
0
0
0
0
0
0
-0.00696148
0.377824
0.480688
0.478097
0.373749
-0.00491514
0
0
0
0
0
0
0
0
0
0
0
0
0
0
0
0.134392
-0.173972
0
0
0
0
0
0
0
0
0
0
0
0
0
0
0
0
0
-0.00543465
0.178084
0.26281
0.26424
0.181713
-0.000299074
0
0
0
0
0
0
0
0
0
0
0
0
0
0
0
0
0
0
0
0
0
0
0
0
0
0
0
0
0
0
0
0
0
0
-0.00947887
0.0788215
0.130568
0.131872
0.0855203
1.98809e-05
0
0
0
0
0
0
0
0
0
0
0
0
0
0
0
0
0
0
0
0
0
0
0
0
0
0
0
0
0
0
0
0
0
0
-0.0158307
0.0268583
0.0507832
0.0517654
0.0304885
-0.00822652
0
0
0
0
0
0
0
0
0
0
0
0
0
0
0
0
0
0
0
0
0
0
0
0
0
0
0
0
0
0
0
0
0
0
-0.112992
-0.00858022
-0.00305546
-0.00254962
-0.00351964
0
0
0
0
0
0
0
0
0
0
0
0
0
0
0
0
0
0
0
0
0
0
0
0
0
0
0
0
0
0
0
0
0
0
0
0
0
0
0
0
0
0
0
0
0
0
0
0
0
0
0
0
0
0
0
0
0
0
0
0
0
0
0
0
0
0
0
0
0
0
0
0
0
0
0
0
0
0
0
0
0
0
0
0
0
0
0
0
0
0
0
0
0
0
0
0
0
0
0
0
0
0
0
0
0
0
0
0
0
0
0
0
0
0
0
0
0
0
0
0
0
0
0
0
0
0
0
0
0
0
0
0
0
0
0
0
0
0
0
0
0
0
0
0
0
0
0
0
0
0
0
0
0
0
0
0
0
0
0
0
0
0
0
0
0
0
0
0
0
0
0
0
0
0
0
0
0
0
0
0
0
0
0
0
0
0
0
0
0
0
0
0
0
0
0
0
0
0
0
0
0
0
0
0
0
0
0
0
0
0
0
0
0
0
0
0
0
0
0
0
0
0
0
0
0
0
0
0
0
0
0
0
0
0
0
0
0
0
0
0
0
0
0
0
0
0
0
0
0
0
0
0
0
0
0
0
0
0
0
0
0
0
0
0
0
0
0
0
0
0
0
0
0
0
0
0
0
0
0
0
0
0
0
0
0
0
0
0
0
0
0
0
0
0
0
0
0
0
0
0
0
0
0
0
0
0
0
0
0
0
0
0
0
0
0
0
0
0
0
0
0
0
0
0
0
0
0
0
0
0
0
0
0
0
0
0
0
0
0
0
0
0
0
0
0
0
0
0
0
0
0
0
0
0
0
0
0
0
0
0
0
0
0
0
0
0
0
0
0
0
0
0
0
0
0
0
0
0
0
0
0
0
0
0
0
0
0
0
0
0
0
0
0
0
0
0
0
0
0
0
0
0
0
0
0
0
0
0
0
0
0
0
0
0
0
0
0
0
SCALARS rhs double 1
LOOKUP_TABLE default
-4.87433
-4.87249
-4.87455
-4.87449
-4.87839
-4.8791
-4.88075
-4.88514
-4.88589
-4.88458
-4.8847
-4.89071
-4.89371
-4.89522
-4.89413
-4.88828
-4.87994
-4.87064
-4.86381
-4.86029
-4.8605
-4.86442
-4.87125
-4.87808
-4.88273
-4.88423
-4.88404
-4.88413
-4.8842
-4.88602
-4.88728
-4.88781
-4.88848
-4.88936
-4.88982
-4.8904
-4.89083
-4.88856
-4.92242
-5.18392
0.12685
0.130984
0.131864
0.129072
0.130182
0.1292
0.126636
0.128125
0.131017
0.128647
0.121438
0.124503
0.125306
0.131704
0.141897
0.146619
0.14931
0.145929
0.140871
0.133264
0.123531
0.117524
0.119017
0.12488
0.129812
0.130807
0.128647
0.126933
0.124397
0.126199
0.127276
0.126943
0.12632
0.126245
0.125651
0.124248
0.12488
0.13015
0.102676
-0.167242
0.124122
0.131197
0.129561
0.129313
0.129451
0.126836
0.127454
0.131262
0.127183
0.119736
0.127238
0.125065
0.137485
0.148215
0.144256
0.146183
0.142236
0.138163
0.12397
0.111416
0.113966
0.124149
0.129791
0.128336
0.12498
0.12323
0.124234
0.12382
0.127721
0.12665
0.125612
0.125165
0.125725
0.124548
0.123186
0.124547
0.128192
0.134298
0.111057
-0.126349
0.122029
0.129758
0.12884
0.129252
0.127246
0.126955
0.130423
0.126909
0.118919
0.131089
0.120671
0.145736
0.148374
0.13332
0.147116
0.145833
0.133661
0.103558
0.10232
0.122006
0.130843
0.126578
0.122424
0.123694
0.126478
0.127972
0.126084
0.129684
0.126266
0.126744
0.126216
0.126608
0.12371
0.121948
0.126667
0.127547
0.126824
0.133413
0.114031
-0.102213
0.119595
0.128613
0.129058
0.127544
0.126802
0.129208
0.12728
0.119121
0.133744
0.115058
0.155478
0.137837
0.125187
0.157072
0.148122
0.113787
0.0831712
0.116023
0.135648
0.127437
0.122278
0.126594
0.130371
0.129855
0.128049
0.125931
0.129898
0.12589
0.127413
0.125563
0.126314
0.123009
0.121698
0.128913
0.125307
0.123379
0.126994
0.133383
0.110887
-0.093406
0.116815
0.128591
0.128096
0.126722
0.128079
0.127867
0.120365
0.132985
0.113915
0.158713
0.124056
0.128867
0.161241
0.143482
0.0883943
0.0875082
0.140516
0.132503
0.121754
0.126694
0.12814
0.124484
0.122565
0.122743
0.122156
0.124757
0.121864
0.123741
0.122578
0.12422
0.12145
0.120923
0.12808
0.121153
0.123682
0.125703
0.125368
0.127548
0.0995421
-0.100737
0.114526
0.128253
0.127101
0.127317
0.128002
0.122898
0.129555
0.118696
0.150003
0.122215
0.133513
0.151661
0.143722
0.0735169
0.109651
0.145466
0.120756
0.117556
0.112812
0.107566
0.109434
0.112267
0.112357
0.110281
0.110595
0.109704
0.110313
0.111551
0.1139
0.114335
0.115552
0.122685
0.116538
0.123512
0.121014
0.121628
0.125785
0.126669
0.0899702
-0.114922
0.112852
0.12805
0.128188
0.129574
0.128022
0.130033
0.128759
0.141381
0.136622
0.134362
0.148925
0.153617
0.0807239
0.131536
0.143274
0.118455
0.106227
0.109856
0.131884
0.144809
0.14786
0.152711
0.149677
0.15022
0.156316
0.160919
0.163576
0.159986
0.154043
0.146139
0.143715
0.135355
0.135463
0.1271
0.134853
0.13929
0.139358
0.134931
0.0881764
-0.135183
0.113239
0.131032
0.1327
0.132992
0.132308
0.133928
0.13543
0.143018
0.130514
0.14528
0.149853
0.0996199
0.127017
0.139933
0.101767
0.112533
0.138503
0.173304
0.189338
0.200116
0.231338
0.225969
0.243716
0.246221
0.220767
0.187765
0.160809
0.145411
0.137337
0.135997
0.134517
0.133135
0.124872
0.146419
0.139222
0.132559
0.129752
0.1405
0.108165
-0.135597
0.118031
0.134875
0.135141
0.134124
0.134875
0.1351
0.140965
0.134932
0.139748
0.145509
0.124071
0.116908
0.14396
0.0933362