# vtk DataFile Version 4.0
Nusif Fluid VTK output
ASCII
DATASET STRUCTURED_POINTS
DIMENSIONS 40 30 1
ORIGIN 0 0 0 
SPACING 0.2 0.2 1
POINT_DATA 1200 

VECTORS velocity double
0.00677927 -0.00737234  0
0.0202856 -0.00726234  0
0.0335226 -0.00704343  0
0.0462138 -0.00671312  0
0.0581328 -0.006268  0
0.0690461 -0.00570429  0
0.0787134 -0.00501916  0
0.0868919 -0.00421277  0
0.0933443 -0.00329063  0
0.0978521 -0.0022659  0
0.100233 -0.00116125  0
0.100358 -9.21011e-06  0
0.0981743 0.0011493  0
0.0937147 0.00226792  0
0.0871051 0.00330016  0
0.0785596 0.00420463  0
0.0683647 0.00494999  0
0.0568575 0.00551726  0
0.0444016 0.00589874  0
0.0313693 0.00609356  0
0.0181329 0.00610258  0
0.00506459 0.00592502  0
-0.00745986 0.00555822  0
-0.0190598 0.0049999  0
-0.0293567 0.00425435  0
-0.0379926 0.00333813  0
-0.0446565 0.00228143  0
-0.0491091 0.00112583  0
-0.0512009 -8.04114e-05  0
-0.0508808 -0.00128704  0
-0.0481962 -0.00244599  0
-0.0432882 -0.00351146  0
-0.0363949 -0.00443237  0
-0.0278823 -0.00513157  0
-0.0183331 -0.00546975  0
-0.00869791 -0.00521833  0
-0.000414358 -0.00411866  0
0.00478893 -0.00213848  0
0.00564774 0.000225549  0
0.00244754 0.00192041  0
0.00688915 -0.0221678  0
0.0206145 -0.0218405  0
0.034072 -0.0211875  0
0.0469896 -0.0202013  0
0.0591421 -0.0188709  0
0.0702955 -0.0171838  0
0.0802055 -0.0151294  0
0.0886211 -0.0127057  0
0.0952919 -0.00992699  0
0.0999821 -0.00683102  0
0.10249 -0.00348542  0
0.102669 1.09965e-05  0
0.100453 0.00353201  0
0.0958675 0.00693369  0
0.0890453 0.010071  0
0.0802147 0.0128154  0
0.0696843 0.0150706  0
0.0578135 0.0167809  0
0.0449838 0.0179271  0
0.0315762 0.0185112  0
0.0179639 0.0185393  0
0.00451649 0.0180092  0
-0.00839129 0.0169107  0
-0.0203709 0.0152305  0
-0.0310246 0.0129769  0
-0.0399699 0.0101983  0
-0.0468716 0.00698715  0
-0.0514727 0.00347279  0
-0.0536158 -0.000194712  0
-0.0532525 -0.0038597  0
-0.0504416 -0.00737369  0
-0.0453435 -0.010596  0
-0.0382209 -0.0133712  0
-0.029467 -0.0154676  0
-0.019689 -0.0164703  0
-0.00984977 -0.0157025  0
-0.00137714 -0.0124016  0
0.00402754 -0.00647487  0
0.00513797 0.000581089  0
0.00226463 0.00562675  0
0.00710619 -0.0372276  0
0.0212656 -0.0366878  0
0.0351621 -0.0356095  0
0.048531 -0.0339796  0
0.0611512 -0.0317779  0
0.0727887 -0.0289789  0
0.0831927 -0.0255583  0
0.0920956 -0.0215043  0
0.0992204 -0.016832  0
0.104295 -0.0115982  0
0.107076 -0.00591376  0
0.107378 5.22901e-05  0
0.105102 0.00607781  0
0.100264 0.0119056  0
0.093006 0.0172747  0
0.0835888 0.0219545  0
0.0723685 0.0257772  0
0.059754 0.0286542  0
0.0461643 0.0305678  0
0.0319983 0.0315385  0
0.0176283 0.0315883  0
0.0034146 0.0307151  0
-0.0102736 0.0288941  0
-0.023032 0.026078  0
-0.0344216 0.0222652  0
-0.0440057 0.0175313  0
-0.0513965 0.0120381  0
-0.0562994 0.00601687  0
-0.058541 -0.00026363  0
-0.0580783 -0.00652695  0
-0.0549948 -0.0125114  0
-0.0494904 -0.017972  0
-0.0418772 -0.0226427  0
-0.0326029 -0.0261363  0
-0.0223236 -0.0277713  0
-0.0120313 -0.0264456  0
-0.00314613 -0.020929  0
0.00267193 -0.011083  0
0.004257 0.000580948  0
0.00195474 0.00888979  0
0.00742797 -0.0528183  0
0.0222313 -0.0520719  0
0.0367799 -0.0505808  0
0.0508211 -0.0483274  0
0.064143 -0.0452799  0
0.0765154 -0.0413932  0
0.0876804 -0.0366181  0
0.0973477 -0.0309188  0
0.105199 -0.0242963  0
0.110902 -0.0168145  0
0.114145 -0.0086229  0
0.114671 3.24714e-05  0
0.112328 0.0088151  0
0.107109 0.0173246  0
0.0991729 0.0251503  0
0.088836 0.0319326  0
0.0765349 0.0374202  0
0.0627608 0.0414992  0
0.0479942 0.0441784  0
0.0326606 0.0455265  0
0.0171271 0.0456024  0
0.00173171 0.0444084  0
-0.0131706 0.0418893  0
-0.0271514 0.0379196  0
-0.039701 0.03246  0
-0.0502901 0.0256062  0
-0.0584437 0.0176037  0
-0.0638065 0.00881276  0
-0.0661805 -0.000348842  0
-0.0655337 -0.00945671  0
-0.0619899 -0.018115  0
-0.0558111 -0.0259582  0
-0.0473874 -0.0326003  0
-0.0372505 -0.0374973  0
-0.0261341 -0.0397138  0
-0.0150836 -0.037754  0
-0.00552612 -0.0299715  0
0.000921619 -0.0162147  0
0.00316006 -1.9254e-05  0
0.00157681 0.0114672  0
0.00785102 -0.0691452  0
0.0235004 -0.0681985  0
0.0389043 -0.0663117  0
0.0538294 -0.0634665  0
0.0680827 -0.0596184  0
0.0814476 -0.0546932  0
0.093664 -0.0485996  0
0.104415 -0.0412542  0
0.113323 -0.0326183  0
0.119972 -0.0227416  0
0.123938 -0.0118013  0
0.124855 -0.000128117  0
0.122481 0.0117971  0
0.116767 0.0233795  0
0.1079 0.0340035  0
0.0962823 0.0431392  0
0.0824643 0.0504373  0
0.0670549 0.0557699  0
0.0506232 0.0592101  0
0.0336347 0.0609208  0
0.0164498 0.06103  0
-0.000629707 0.0595589  0
-0.0172706 0.0563849  0
-0.0330008 0.0512376  0
-0.0472003 0.0439933  0
-0.0592005 0.0347639  0
-0.0684032 0.0239035  0
-0.0743709 0.0119442  0
-0.0768759 -0.000501135  0
-0.0759062 -0.0128214  0
-0.0716442 -0.0244572  0
-0.0644415 -0.0348992  0
-0.0547996 -0.0436271  0
-0.0433707 -0.0499389  0
-0.0310026 -0.0526598  0
-0.0188271 -0.0499374  0
-0.00830619 -0.03977  0
-0.00102197 -0.0220518  0
0.00199354 -0.00133982  0
0.00118437 0.0132767  0
0.00837094 -0.0864055  0
0.0250565 -0.0852615  0
0.0415013 -0.0829969  0
0.0575018 -0.079605  0
0.072902 -0.0750303  0
0.0875182 -0.069158  0
0.101102 -0.0618292  0
0.11331 -0.0528773  0
0.123698 -0.0421836  0
0.131725 -0.0297435  0
0.136807 -0.0157392  0
0.138405 -0.000595145  0
0.136134 0.0150197  0
0.129882 0.0302323  0
0.119872 0.0441375  0
0.106621 0.0559849  0
0.0908165 0.0653236  0
0.0731996 0.0720196  0
0.0544521 0.0762488  0
0.0351054 0.0783264  0
0.0155381 0.0784854  0
-0.00397017 0.0767998  0
-0.0230872 0.0730101  0
-0.0412459 0.0666092  0
-0.0576572 0.05734  0
-0.0714781 0.0453453  0
-0.0819723 0.0311256  0
-0.0886168 0.0154405  0
-0.0911609 -0.000842777  0
-0.0896262 -0.0168793  0
-0.0842741 -0.0319091  0
-0.0755766 -0.0452437  0
-0.0641885 -0.0562096  0
-0.0509276 -0.0639437  0
-0.036801 -0.0670477  0
-0.0230705 -0.0633537  0
-0.011268 -0.0505756  0
-0.00296177 -0.0287353  0
0.000891461 -0.00342375  0
0.000825422 0.0143372  0
0.0089814 -0.104786  0
0.0268741 -0.103435  0
0.0445123 -0.100801  0
0.0617361 -0.0969181  0
0.0784586 -0.091731  0
0.094565 -0.0850698  0
0.109848 -0.0766731  0
0.12396 -0.0662414  0
0.136377 -0.0535096  0
0.1464 -0.0383541  0
0.153222 -0.0209172  0
0.156037 -0.00171509  0
0.154231 0.0183327  0
0.147585 0.0379336  0
0.136377 0.0557696  0
0.121262 0.070835  0
0.103023 0.0826323  0
0.0824698 0.0909957  0
0.0604065 0.0961982  0
0.0374905 0.0987543  0
0.0142154 0.0990142  0
-0.0090567 0.0971653  0
-0.0318597 0.0926783  0
-0.0533861 0.0847395  0
-0.0726141 0.0729621  0
-0.0885526 0.0575953  0
-0.100392 0.0393208  0
-0.107569 0.019179  0
-0.109852 -0.00164301  0
-0.107319 -0.0220368  0
-0.100318 -0.0409953  0
-0.089475 -0.0575885  0
-0.0756545 -0.070965  0
-0.0598942 -0.0801017  0
-0.0434092 -0.083394  0
-0.0276365 -0.0784037  0
-0.0142167 -0.0626413  0
-0.00472646 -0.0363596  0
-3.09398e-05 -0.00624179  0
0.000540455 0.0147563  0
0.00966841 -0.124453  0
0.0288953 -0.122849  0
0.0478025 -0.11982  0
0.0662999 -0.115507  0
0.0844255 -0.109876  0
0.102195 -0.102685  0
0.119498 -0.0935273  0
0.136021 -0.0819036  0
0.151186 -0.0673088  0
0.164122 -0.0493946  0
0.173713 -0.0281677  0
0.178764 -0.00420893  0
0.178253 0.0212658  0
0.171752 0.0462695  0
0.159628 0.0688872  0
0.142705 0.0878765  0
0.121698 0.102959  0
0.0972481 0.113792  0
0.0702365 0.120597  0
0.041558 0.12407  0
0.0120591 0.124592  0
-0.0174895 0.122528  0
-0.0460678 0.116817  0
-0.072296 0.106475  0
-0.0948897 0.0911671  0
-0.11291 0.0714677  0
-0.125709 0.0482046  0
-0.132826 0.0227068  0
-0.134152 -0.00344519  0
-0.129855 -0.0289489  0
-0.120345 -0.0524788  0
-0.106447 -0.0727305  0
-0.0893199 -0.0886569  0
-0.070278 -0.0990989  0
-0.0507766 -0.102271  0
-0.0324505 -0.0955137  0
-0.0170694 -0.0762205  0
-0.00623621 -0.0449923  0
-0.000716205 -0.00971307  0
0.0003495 0.0147022  0
0.010378 -0.145506  0
0.0309331 -0.143526  0
0.0510054 -0.140004  0
0.0706178 -0.135313  0
0.09002 -0.129477  0
0.10945 -0.122161  0
0.128983 -0.112764  0
0.148437 -0.10052  0
0.167269 -0.084563  0
0.184463 -0.0641438  0
0.198526 -0.0389454  0
0.207705 -0.00953214  0
0.21014 0.0227939  0
0.204869 0.0546409  0
0.192483 0.0831543  0
0.174204 0.106937  0
0.15036 0.126877  0
0.120852 0.141958  0
0.0864441 0.151976  0
0.0483625 0.157577  0
0.00823931 0.158833  0
-0.031927 0.156127  0
-0.0695829 0.147576  0
-0.10225 0.132735  0
-0.128485 0.111861  0
-0.147946 0.0863804  0
-0.160656 0.0569248  0
-0.166429 0.0250001  0
-0.165518 -0.00720088  0
-0.158278 -0.0386088  0
-0.145012 -0.067473  0
-0.126805 -0.0917208  0
-0.10531 -0.110169  0
-0.0821729 -0.121647  0
-0.0590467 -0.124233  0
-0.037708 -0.115099  0
-0.0200205 -0.0915868  0
-0.00762919 -0.0547338  0
-0.00123569 -0.0137683  0
0.000231375 0.0143415  0
0.0109377 -0.167817  0
0.0324435 -0.165209  0
0.053158 -0.160984  0
0.0732916 -0.155954  0
0.0934329 -0.150252  0
0.114166 -0.143421  0
0.135873 -0.134614  0
0.15867 -0.122791  0
0.182223 -0.106545  0
0.20545 -0.0844499  0
0.226472 -0.0555908  0
0.242979 -0.0204375  0
0.251064 0.0213147  0
0.248244 0.0623461  0
0.23603 0.0981834  0
0.217109 0.127241  0
0.190895 0.154764  0
0.155436 0.17717  0
0.110939 0.1938  0
0.0586078 0.204297  0
0.0014608 0.207513  0
-0.0554435 0.202648  0
-0.106215 0.187614  0
-0.147005 0.164285  0
-0.176526 0.134198  0
-0.19597 0.101078  0
-0.206919 0.0640158  0
-0.209427 0.0243211  0
-0.204594 -0.0141367  0
-0.193252 -0.0521277  0
-0.17486 -0.0874846  0
-0.150766 -0.115884  0
-0.123716 -0.136425  0
-0.0957727 -0.148347  0
-0.0686159 -0.149692  0
-0.0439637 -0.137508  0
-0.0236337 -0.109073  0
-0.00932636 -0.0658244  0
-0.00181349 -0.0184623  0
0.000121462 0.0137553  0
0.0109141 -0.190653  0
0.0321224 -0.187007  0
0.0521186 -0.181767  0
0.0714437 -0.176499  0
0.0911802 -0.171453  0
0.1124 -0.16604  0
0.135874 -0.159039  0
0.162198 -0.149349  0
0.19138 -0.134583  0
0.222087 -0.112207  0
0.252414 -0.081043  0
0.281025 -0.0419607  0
0.297956 0.0159638  0
0.296491 0.0701241  0
0.28264 0.11461  0
0.264096 0.146418  0
0.237187 0.186847  0
0.196099 0.219771  0
0.141006 0.248926  0
0.0707249 0.26992  0
-0.00959135 0.27749  0
-0.0883589 0.266479  0
-0.154592 0.238924  0
-0.204488 0.201797  0
-0.236061 0.155917  0
-0.252758 0.113637  0
-0.260095 0.0678791  0
-0.257476 0.0184828  0
-0.247926 -0.0245453  0
-0.233597 -0.0692565  0
-0.210046 -0.114165  0
-0.178456 -0.146757  0
-0.144594 -0.168334  0
-0.111184 -0.179664  0
-0.0797062 -0.178881  0
-0.051549 -0.163001  0
-0.0282723 -0.12906  0
-0.0116061 -0.0786838  0
-0.00256499 -0.0240301  0
4.92398e-06 0.0129453  0
0.00949275 -0.212033  0
0.0276318 -0.206881  0
0.04433 -0.200453  0
0.0607011 -0.195372  0
0.0784385 -0.191915  0
0.0992997 -0.189519  0
0.124114 -0.185706  0
0.154059 -0.180807  0
0.188821 -0.168923  0
0.225038 -0.146644  0
0.263533 -0.117281  0
0.31176 -0.0844115  0
0.338374 0.0130202  0
0.327484 0.0835728  0
0.304508 0.136135  0
0.291259 0.154831  0
0.268314 0.226432  0
0.221296 0.266435  0
0.161681 0.315112  0
0.0774612 0.356375  0
-0.0241495 0.371102  0
-0.120503 0.346129  0
-0.198383 0.301529  0
-0.260053 0.248901  0
-0.292246 0.170721  0
-0.299453 0.120879  0
-0.301285 0.0679484  0
-0.293665 0.00631569  0
-0.283027 -0.0344241  0
-0.274265 -0.0843283  0
-0.250084 -0.148684  0
-0.210004 -0.18577  0
-0.168091 -0.206959  0
-0.127931 -0.216475  0
-0.0909731 -0.212373  0
-0.0585163 -0.19199  0
-0.0319789 -0.151753  0
-0.0130536 -0.0934512  0
-0.00265793 -0.0305678  0
0.000185368 0.0122015  0
0.00564578 -0.228134  0
0.0162376 -0.221404  0
0.0262215 -0.214473  0
0.0374574 -0.210818  0
0.0521044 -0.21071  0
0.0730966 -0.214431  0
0.0990512 -0.213415  0
0.133061 -0.218904  0
0.169777 -0.204154  0
0.199491 -0.17919  0
0.236615 -0.162201  0
0.312811 -0.16576  0
0.339074 0.0401094  0
0.293364 0.112161  0
0.254511 0.167986  0
0.270422 0.118464  0
0.257759 0.296552  0
0.188204 0.311034  0
0.135612 0.380868  0
0.0590136 0.449582  0
-0.0349707 0.471635  0
-0.117948 0.423074  0
-0.193389 0.376054  0
-0.282541 0.323347  0
-0.31816 0.162236  0
-0.300318 0.116879  0
-0.293801 0.0654112  0
-0.286936 -0.00748311  0
-0.288247 -0.031805  0
-0.304322 -0.0814866  0
-0.291063 -0.190818  0
-0.243554 -0.233082  0
-0.193644 -0.253329  0
-0.144286 -0.261484  0
-0.0977941 -0.252677  0
-0.057794 -0.226007  0
-0.0272868 -0.176644  0
-0.00836247 -0.108273  0
0.000588272 -0.0369561  0
0.00150803 0.0129631  0
-0.00117442 -0.233558  0
-0.00284556 -0.226781  0
-0.00151432 -0.222266  0
0.00397544 -0.221604  0
0.0158555 -0.228302  0
0.039202 -0.243026  0
0.0632161 -0.236636  0
0.101171 -0.269493  0
0.127912 -0.218406  0
0.133275 -0.200938  0
0.153565 -0.19879  0
0.166164 -0.218887  0
0.20694 -0.0761869  0
0.253067 0.159268  0
0.258417 0.187069  0
0.253574 0.0873877  0
0.210047 0.382893  0
0.156526 0.346844  0
0.100144 0.453108  0
0.0413297 0.511364  0
-0.00107414 0.544387  0
-0.0416031 0.471976  0
-0.101611 0.461215  0
-0.184752 0.409556  0
-0.228669 0.154639  0
-0.228316 0.105358  0
-0.217471 0.0586449  0
-0.221294 -0.00468231  0
-0.250794 -0.00471966  0
-0.297312 -0.0469031  0
-0.308242 -0.228655  0
-0.266105 -0.286282  0
-0.213551 -0.304449  0
-0.155631 -0.319499  0
-0.0929871 -0.305657  0
-0.0385859 -0.269286  0
-0.00214866 -0.202168  0
0.0104959 -0.116177  0
0.0100449 -0.0394113  0
0.00457124 0.0181126  0
-0.0098596 -0.223467  0
-0.0247425 -0.222188  0
-0.0281113 -0.226674  0
-0.0285615 -0.224084  0
-0.0198864 -0.248223  0
0.00185777 -0.269579  0
0.0125006 -0.245661  0
0.012179 -0.299022  0
0.0651575 -0.25755  0
0.130931 -0.104315  0
0.158693 -0.105694  0
0.169913 -0.109443  0
0.0830818 -0.109443  0
0.129209 0.0935343  0
0.305836 0.0935343  0
0.13632 0.0461154  0
0.0753222 0.210789  0
0.119988 0.18084  0
0.0204188 0.511411  0
0.0321218 0.528168  0
0.0212577 0.579924  0
0.0103935 0.486908  0
-0.0390423 0.496369  0
-0.0118518 0.224041  0
-0.0544358 0.0800144  0
-0.175073 0.0498079  0
-0.169785 0.0267711  0
-0.20245 0.0021216  0
-0.238193 0.00792733  0
-0.16755 -0.0104796  0
-0.154246 -0.278769  0
-0.207946 -0.313869  0
-0.196436 -0.341854  0
-0.147762 -0.390078  0
-0.0721954 -0.375145  0
0.000197823 -0.328449  0
0.0460478 -0.227147  0
0.0429571 -0.102605  0
0.0213193 -0.0327499  0
0.00731604 0.0290717  0
-0.0163646 -0.198179  0
-0.0370299 -0.213789  0
-0.0328951 -0.237687  0
-0.0462867 -0.200614  0
-0.0681138 -0.259463  0
-0.0452479 -0.270004  0
0.0217397 -0.12267  0
0.0390201 -0.149511  0
0.00608952 -0.149511  0
0 0  0
0 0  0
0 0  0
0 0  0
0 0  0
0 0  0
0 0  0
0 0  0
0 0  0
0.0160609 0.264084  0
0.000811833 0.264084  0
0.0418881 0.295394  0
0.0623339 0.243454  0
0.00519676 0.243454  0
0 0  0
0 0  0
0 0  0
0 0  0
0 0  0
0 0  0
0 0  0
-0.103973 -0.156934  0
-0.188198 -0.156934  0
-0.116973 -0.390535  0
-0.0654954 -0.427706  0
-0.038048 -0.441459  0
0.0309982 -0.404964  0
0.081458 -0.248331  0
0.0550452 -0.0528434  0
0.0145654 -0.0217845  0
0.00467961 0.0401404  0
-0.012432 -0.170313  0
-0.0279366 -0.206877  0
-0.0310092 -0.246584  0
-0.00922323 -0.212686  0
-0.0277755 -0.129732  0
-0.0340569 -0.129732  0
0 0  0
0 0  0
0 0  0
0 0  0
0 0  0
0 0  0
0 0  0
0 0  0
0 0  0
0 0  0
0 0  0
0 0  0
0 0  0
0 0  0
0 0  0
0 0  0
0 0  0
0 0  0
0 0  0
0 0  0
0 0  0
0 0  0
0 0  0
0 0  0
0 0  0
0 0  0
-0.0327477 -0.213853  0
-0.0448953 -0.213853  0
-0.00700344 -0.457966  0
0.0102884 -0.447026  0
-0.0695073 -0.352109  0
-0.0727826 -0.0173061  0
0.00373786 -0.0170424  0
0.00186893 0.0462257  0
0 -0.158345  0
0.00588521 -0.181075  0
-0.00961941 -0.123292  0
-0.0155046 -0.123292  0
0 0  0
0 0  0
0 0  0
0 0  0
0 0  0
0 0  0
0 0  0
0 0  0
0 0  0
0 0  0
0 0  0
0 0  0
0 0  0
0 0  0
0 0  0
0 0  0
0 0  0
0 0  0
0 0  0
0 0  0
0 0  0
0 0  0
0 0  0
0 0  0
0 0  0
0 0  0
0 0  0
0 0  0
0 0  0
0 0  0
0.00514421 -0.223513  0
0.0102884 -0.223513  0
0.00514421 -0.223513  0
0.00186893 -0.00852121  0
-0.0288306 -0.00852121  0
-0.0306996 0.0240473  0
0 -0.0791726  0
0 -0.0791726  0
0 0  0
0 0  0
0 0  0
0 0  0
0 0  0
0 0  0
0 0  0
0 0  0
0 0  0
0 0  0
0 0  0
0 0  0
0 0  0
0 0  0
0 0  0
0 0  0
0 0  0
0 0  0
0 0  0
0 0  0
0 0  0
0 0  0
0 0  0
0 0  0
0 0  0
0 0  0
0 0  0
0 0  0
0 0  0
0 0  0
0 0  0
0 0  0
0 0  0
0 0  0
0 0  0
0 0  0
0 0  0
0 0  0
0 0  0
0 0  0
0 0  0
0 0  0
0 0  0
0 0  0
0 0  0
0 0  0
0 0  0
0 0  0
0 0  0
0 0  0
0 0  0
0 0  0
0 0  0
0 0  0
0 0  0
0 0  0
0 0  0
0 0  0
0 0  0
0 0  0
0 0  0
0 0  0
0 0  0
0 0  0
0 0  0
0 0  0
0 0  0
0 0  0
0 0  0
0 0  0
0 0  0
0 0  0
0 0  0
0 0  0
0 0  0
0 0  0
0 0  0
0 0  0
0 0  0
0 0  0
0 0  0
0 0  0
0 0  0
0 0  0
0 0  0
0 0  0
0 0  0
0 0  0
0 0  0
0 0  0
0 0  0
0 0  0
0 0  0
0 0  0
0 0  0
0 0  0
0 0  0
0 0  0
0 0  0
0 0  0
0 0  0
0 0  0
0 0  0
0 0  0
0 0  0
0 0  0
0 0  0
0 0  0
0 0  0
0 0  0
0 0  0
0 0  0
0 0  0
0 0  0
0 0  0
0 0  0
0 0  0
0 0  0
0 0  0
0 0  0
0 0  0
0 0  0
0 0  0
0 0  0
0 0  0
0 0  0
0 0  0
0 0  0
0 0  0
0 0  0
0 0  0
0 0  0
0 0  0
0 0  0
0 0  0
0 0  0
0 0  0
0 0  0
0 0  0
0 0  0
0 0  0
0 0  0
0 0  0
0 0  0
0 0  0
0 0  0
0 0  0
0 0  0
0 0  0
0 0  0
0 0  0
0 0  0
0 0  0
0 0  0
0 0  0
0 0  0
0 0  0
0 0  0
0 0  0
0 0  0
0 0  0
0 0  0
0 0  0
0 0  0
0 0  0
0 0  0
0 0  0
0 0  0
0 0  0
0 0  0
0 0  0
0 0  0
0 0  0
0 0  0
0 0  0
0 0  0
0 0  0
0 0  0
0 0  0
0 0  0
0 0  0
0 0  0
0 0  0
0 0  0
0 0  0
0 0  0
0 0  0
0 0  0
0 0  0
0 0  0
0 0  0
0 0  0
0 0  0
0 0  0
0 0  0
0 0  0
0 0  0
0 0  0
0 0  0
0 0  0
0 0  0
0 0  0
0 0  0
0 0  0
0 0  0
0 0  0
0 0  0
0 0  0
0 0  0
0 0  0
0 0  0
0 0  0
0 0  0
0 0  0
0 0  0
0 0  0
0 0  0
0 0  0
0 0  0
0 0  0
0 0  0
0 0  0
0 0  0
0 0  0
0 0  0
0 0  0
0 0  0
0 0  0
0 0  0
0 0  0
0 0  0
0 0  0
0 0  0
0 0  0
0 0  0
0 0  0
0 0  0
0 0  0
0 0  0
0 0  0
0 0  0
0 0  0
0 0  0
0 0  0
0 0  0
0 0  0
0 0  0
0 0  0
0 0  0
0 0  0
0 0  0
0 0  0
0 0  0
0 0  0
0 0  0
0 0  0
0 0  0
0 0  0
0 0  0
0 0  0
0 0  0
0 0  0
0 0  0
0 0  0
0 0  0
0 0  0
0 0  0
0 0  0
0 0  0
0 0  0
0 0  0
0 0  0
0 0  0
0 0  0
0 0  0
0 0  0
0 0  0
0 0  0
0 0  0
0 0  0
0 0  0
0 0  0
0 0  0
0 0  0
0 0  0
0 0  0
0 0  0
0 0  0
0 0  0
0 0  0
0 0  0
0 0  0
0 0  0
0 0  0
0 0  0
0 0  0
0 0  0
0 0  0
0 0  0
0 0  0
0 0  0
0 0  0
0 0  0
0 0  0
0 0  0
0 0  0
0 0  0
0 0  0
0 0  0
0 0  0
0 0  0
0 0  0
0 0  0
0 0  0
0 0  0
0 0  0
0 0  0
0 0  0
0 0  0
0 0  0
0 0  0
0 0  0
0 0  0
0 0  0
0 0  0
0 0  0
0 0  0
0 0  0
0 0  0
0 0  0
0 0  0
0 0  0
0 0  0
0 0  0
0 0  0
0 0  0
0 0  0
0 0  0
0 0  0
0 0  0
0 0  0
0 0  0
0 0  0
0 0  0
0 0  0
0 0  0
0 0  0
0 0  0
0 0  0
0 0  0
0 0  0
0 0  0
0 0  0
0 0  0
0 0  0
0 0  0
0 0  0
0 0  0
0 0  0
0 0  0
0 0  0
0 0  0
0 0  0
0 0  0
0 0  0
0 0  0
0 0  0
0 0  0
0 0  0
0 0  0
0 0  0
0 0  0
0 0  0
0 0  0
0 0  0
0 0  0
0 0  0
0 0  0
0 0  0
0 0  0
0 0  0
0 0  0
0 0  0
0 0  0
0 0  0
0 0  0
0 0  0
0 0  0
0 0  0
0 0  0
0 0  0
0 0  0
0 0  0
0 0  0
0 0  0
0 0  0
0 0  0
0 0  0
0 0  0
0 0  0
0 0  0
0 0  0
0 0  0
0 0  0
0 0  0
0 0  0
0 0  0
0 0  0
0 0  0
0 0  0
0 0  0
0 0  0
0 0  0
0 0  0
0 0  0
0 0  0
0 0  0
0 0  0
0 0  0
0 0  0
0 0  0
0 0  0
0 0  0
0 0  0
0 0  0
0 0  0
0 0  0
0 0  0
0 0  0
0 0  0
0 0  0
0 0  0
0 0  0
0 0  0
0 0  0
0 0  0
0 0  0
0 0  0
0 0  0
0 0  0
0 0  0
0 0  0
0 0  0
0 0  0
0 0  0
0 0  0
0 0  0
0 0  0
0 0  0
0 0  0
0 0  0
0 0  0
0 0  0
0 0  0
0 0  0
0 0  0
0 0  0
0 0  0
0 0  0
0 0  0
0 0  0
0 0  0
0 0  0
0 0  0
0 0  0
0 0  0
0 0  0
0 0  0
0 0  0
0 0  0
0 0  0
0 0  0
0 0  0
0 0  0
0 0  0
0 0  0
0 0  0
0 0  0

SCALARS pressure double 1
LOOKUP_TABLE default
3.50771
3.50571
3.50165
3.49572
3.48823
3.47953
3.47005
3.46025
3.45059
3.44152
3.43345
3.42672
3.42157
3.41811
3.41638
3.41628
3.41764
3.42026
3.42392
3.42839
3.43353
3.43923
3.44539
3.45206
3.45931
3.46721
3.47583
3.48516
3.49516
3.50572
3.51663
3.52763
3.53841
3.54864
3.55796
3.56608
3.57279
3.57797
3.58151
3.58332
3.30258
3.30048
3.29621
3.29001
3.28217
3.27308
3.26317
3.25294
3.24286
3.23341
3.22503
3.21805
3.21274
3.20923
3.20753
3.20754
3.20906
3.21185
3.21567
3.22029
3.22554
3.23129
3.23747
3.24412
3.25136
3.25926
3.26791
3.27731
3.28745
3.29818
3.30932
3.32059
3.33165
3.34216
3.35176
3.36013
3.36706
3.37242
3.37608
3.37795
3.09234
3.09003
3.08537
3.07861
3.07008
3.0602
3.04944
3.03834
3.02741
3.0172
3.00816
3.0007
2.99509
2.99148
2.98987
2.99012
2.99199
2.99516
2.99934
3.00425
3.0097
3.01557
3.02176
3.02839
3.03558
3.04347
3.05216
3.06171
3.07211
3.08321
3.09482
3.10663
3.11828
3.12938
3.13955
3.14845
3.15583
3.16153
3.16544
3.16744
2.87718
2.87455
2.86928
2.86166
2.85206
2.84094
2.82885
2.81639
2.80415
2.79273
2.78267
2.77444
2.76838
2.76465
2.76323
2.76392
2.76636
2.77017
2.77494
2.78034
2.78611
2.79213
2.79831
2.80484
2.81191
2.81973
2.82847
2.83822
2.84899
2.86067
2.873
2.88567
2.89826
2.91032
2.9214
2.93112
2.9392
2.94546
2.94975
2.95195
2.65734
2.65427
2.64816
2.63932
2.6282
2.61534
2.60137
2.58698
2.57287
2.55973
2.54822
2.53891
2.53221
2.52836
2.52729
2.52869
2.53207
2.53686
2.54254
2.54865
2.55487
2.56105
2.56712
2.57341
2.58023
2.58786
2.59658
2.60655
2.61783
2.63029
2.64366
2.65757
2.67151
2.68495
2.69734
2.70825
2.71734
2.72438
2.72921
2.73168
2.43323
2.42957
2.42231
2.41184
2.39867
2.38347
2.36697
2.34997
2.33332
2.31784
2.30433
2.2935
2.28594
2.28199
2.28155
2.28411
2.28892
2.29521
2.30222
2.30935
2.31615
2.32243
2.32822
2.33403
2.34032
2.34755
2.35613
2.36631
2.37821
2.39169
2.40647
2.42208
2.4379
2.45325
2.46747
2.48
2.49044
2.49854
2.50408
2.50692
2.20536
2.20092
2.19215
2.17953
2.16368
2.14541
2.12559
2.10517
2.08516
2.06654
2.0503
2.03737
2.02862
2.02464
2.02527
2.02967
2.03669
2.04518
2.05414
2.0627
2.07026
2.07649
2.08163
2.0865
2.09183
2.09832
2.10653
2.11685
2.12948
2.14428
2.16093
2.17885
2.19724
2.2152
2.23187
2.24657
2.2588
2.26827
2.27475
2.27805
1.97443
1.96897
1.95825
1.94283
1.92354
1.90131
1.8772
1.85235
1.82794
1.80518
1.78522
1.7693
1.75875
1.75484
1.75735
1.76471
1.77505
1.78674
1.79848
1.8091
1.81764
1.82346
1.82731
1.83049
1.83418
1.8394
1.84692
1.85725
1.8707
1.88715
1.90626
1.92733
1.94924
1.97076
1.99072
2.00825
2.02279
2.034
2.04164
2.04553
1.74134
1.73458
1.72133
1.70234
1.67862
1.65135
1.62179
1.59124
1.56114
1.53297
1.50794
1.48752
1.47396
1.47023
1.47614
1.48829
1.50355
1.51973
1.5354
1.54901
1.55883
1.56357
1.56498
1.56531
1.56637
1.56961
1.57599
1.58612
1.60045
1.61893
1.64131
1.66672
1.69354
1.71992
1.74428
1.76548
1.78291
1.79626
1.80535
1.80996
1.50732
1.49887
1.48238
1.45881
1.42948
1.39585
1.35944
1.32162
1.28416
1.24912
1.21726
1.18967
1.17018
1.16668
1.17936
1.19945
1.22169
1.24364
1.26464
1.28274
1.29436
1.29669
1.29375
1.28956
1.28666
1.28708
1.29184
1.3015
1.31664
1.33756
1.36426
1.39587
1.42966
1.46281
1.49302
1.51891
1.53986
1.55577
1.56657
1.57206
1.27399
1.26337
1.24272
1.21331
1.17685
1.13525
1.09045
1.04337
0.996134
0.953063
0.912729
0.873351
0.839742
0.836424
0.864816
0.898177
0.929306
0.957198
0.9847
1.01002
1.02413
1.02188
1.01128
1.00064
0.992435
0.989294
0.992086
1.00099
1.01656
1.04006
1.07211
1.11308
1.15718
1.19985
1.23784
1.26952
1.29454
1.31334
1.32615
1.33272
1.04357
1.03016
1.0042
0.967282
0.921666
0.870001
0.815641
0.75675
0.69493
0.644878
0.597181
0.538947
0.4666
0.463202
0.534734
0.58876
0.628045
0.658204
0.691655
0.730011
0.747663
0.73724
0.712818
0.694506
0.68048
0.67389
0.674751
0.682722
0.69792
0.722519
0.759186
0.816195
0.876005
0.932253
0.980352
1.01881
1.04798
1.06976
1.085
1.093
0.819112
0.80211
0.769366
0.722618
0.664971
0.599483
0.53709
0.463974
0.372805
0.325596
0.282398
0.201933
0.0120433
0.00697756
0.213925
0.284188
0.322602
0.344344
0.37818
0.446613
0.468865
0.445281
0.390361
0.365743
0.348535
0.341271
0.340944
0.348217
0.360969
0.380496
0.411746
0.504056
0.587187
0.662558
0.72314
0.768636
0.800617
0.825045
0.843906
0.854232
0.604604
0.58289
0.541644
0.481694
0.408384
0.31735
0.260726
0.178757
-0.000460271
-0.00380873
-0.00616999
-0.0203217
0
0
0.0236837
0.00175568
0.0203153
0.00670212
0.0191072
0.188695
0.210786
0.169777
0.0204961
0.019887
0.00268823
-0.00295065
-0.00269567
0.0043726
0.0103468
0.0145053
-0.0107386
0.187834
0.293772
0.395513
0.469661
0.520993
0.550427
0.576997
0.603378
0.61854
0.404836
0.376407
0.325722
0.24676
0.161158
-0.00776576
0.00101043
-0.0173834
0
0
0
0
0
0
0
0
0
0
0
0.0675624
0.00457395
-0.00455822
0
0
0
0
0
0
0
0
0
-0.0443897
-0.00662218
0.140845
0.223427
0.27972
0.289591
0.316315
0.365205
0.390503
0.225536
0.184984
0.130945
0.0101505
-0.0123442
0
0
0
0
0
0
0
0
0
0
0
0
0
0
0
0
0
0
0
0
0
0
0
0
0
0
0
0
-0.0598816
-0.0144068
0.0670977
-0.00611748
0.0173676
0.142657
0.180296
0.0779519
0.000627262
-0.00383895
0
0
0
0
0
0
0
0
0
0
0
0
0
0
0
0
0
0
0
0
0
0
0
0
0
0
0
0
0
0
0
0
0
0
0
-0.000279944
0.00104252
0.00138018
0
0
0
0
0
0
0
0
0
0
0
0
0
0
0
0
0
0
0
0
0
0
0
0
0
0
0
0
0
0
0
0
0
0
0
0
0
0
0
0
0
0
0
0
0
0
0
0
0
0
0
0
0
0
0
0
0
0
0
0
0
0
0
0
0
0
0
0
0
0
0
0
0
0
0
0
0
0
0
0
0
0
0
0
0
0
0
0
0
0
0
0
0
0
0
0
0
0
0
0
0
0
0
0
0
0
0
0
0
0
0
0
0
0
0
0
0
0
0
0
0
0
0
0
0
0
0
0
0
0
0
0
0
0
0
0
0
0
0
0
0
0
0
0
0
0
0
0
0
0
0
0
0
0
0
0
0
0
0
0
0
0
0
0
0
0
0
0
0
0
0
0
0
0
0
0
0
0
0
0
0
0
0
0
0
0
0
0
0
0
0
0
0
0
0
0
0
0
0
0
0
0
0
0
0
0
0
0
0
0
0
0
0
0
0
0
0
0
0
0
0
0
0
0
0
0
0
0
0
0
0
0
0
0
0
0
0
0
0
0
0
0
0
0
0
0
0
0
0
0
0
0
0
0
0
0
0
0
0
0
0
0
0
0
0
0
0
0
0
0
0
0
0
0
0
0
0
0
0
0
0
0
0
0
0
0
0
0
0
0
0
0
0
0
0
0
0
0
0
0
0
0
0
0
0
0
0
0
0
0
0
0
0
0
0
0
0
0
0
0
0
0
0
0
0
0
0
0
0
0
0
0
0
0
0
0
0
0
0
0
0
0
0
0
0
0
0
0
0
0
0
0
0
0
0
0
0
0
0
0
0
0
0
0
0
0
0
0
0
0
0
0
0
0
0
0
0
0
0
0
0
0
0
0
0
0
0
0
0
0
0
0
0
0
0
0
0
0
0
0
0
0
0
0
0
0
0
0
0
0
0
0
0
0
0
0
0
0
0
0
0
0
0
0
0
0
0
0
0
0
0
0
0
0
0
0
0
0
0
0
0
0
0
0
0
0
0
0
0
0
0
0
0
0
0
0
0
0
0
0
0
0
0
0
0
0
0
0
0
0
0
0
0
0
0
0
0
0
0
0
0
0
0
0
0
0
0
0
0
0
0
0
0
0
0
0
0
0
0
0
0
0
0
0
0
0
0
0
0
0
0
0
0
0
0
0
0
0
0
SCALARS rhs double 1
LOOKUP_TABLE default
-5.30655
-5.25328
-5.25115
-5.2493
-5.24718
-5.24499
-5.24275
-5.24053
-5.23851
-5.2368
-5.23558
-5.23493
-5.23486
-5.23533
-5.23623
-5.23733
-5.23858
-5.2397
-5.24067
-5.24125
-5.24156
-5.24257
-5.24166
-5.24005
-5.23917
-5.23835
-5.23775
-5.23752
-5.23782
-5.2387
-5.24012
-5.24194
-5.24391
-5.24564
-5.24655
-5.24603
-5.2437
-5.24219
-5.24129
-5.24198
-0.249796
-0.199047
-0.197978
-0.196948
-0.19573
-0.194352
-0.192876
-0.191347
-0.189973
-0.188795
-0.188023
-0.187643
-0.187741
-0.188496
-0.189622
-0.191011
-0.192444
-0.193715
-0.194667
-0.195269
-0.195427
-0.196471
-0.195026
-0.193141
-0.191872
-0.190593
-0.189533
-0.188883
-0.188909
-0.189405
-0.190329
-0.191594
-0.192957
-0.194064
-0.19441
-0.193488
-0.191157
-0.189516
-0.188727
-0.189482
-0.246796
-0.198204
-0.197212
-0.196187
-0.195078
-0.193764
-0.192332
-0.190915
-0.189566
-0.188465
-0.187709
-0.187309
-0.187315
-0.188076
-0.189224
-0.190633
-0.192012
-0.193242
-0.19413
-0.194714
-0.194867
-0.196362
-0.194447
-0.19276
-0.191533
-0.190286
-0.189228
-0.188565
-0.188714
-0.18926
-0.190146
-0.191344
-0.192578
-0.193457
-0.193472
-0.192167
-0.189763
-0.187566
-0.186914
-0.187681
-0.243827
-0.197949
-0.196953
-0.196058
-0.195026
-0.193835
-0.192537
-0.191272
-0.190042
-0.189061
-0.188391
-0.187998
-0.1879
-0.188701
-0.189907
-0.191271
-0.192602
-0.1937
-0.194525
-0.195013
-0.195168
-0.19748
-0.194714
-0.193443
-0.192305
-0.191101
-0.190053
-0.189369
-0.189656
-0.190243
-0.191047
-0.192104
-0.193108
-0.193629
-0.193153
-0.191311
-0.188383
-0.186263
-0.185381
-0.186117
-0.240703
-0.197945
-0.196999
-0.196239
-0.195339
-0.194341
-0.193302
-0.192269
-0.191309
-0.19055
-0.190111
-0.189807
-0.189587
-0.19051
-0.191749
-0.193065
-0.194251
-0.19518
-0.195814
-0.196184
-0.196395
-0.199842
-0.195925
-0.195285
-0.194328
-0.193206
-0.192156
-0.191417
-0.191881
-0.192459
-0.193083
-0.193883
-0.194505
-0.194485
-0.193327
-0.190782
-0.187382
-0.184947
-0.183887
-0.184563
-0.237521
-0.198238
-0.197378
-0.196737
-0.196039
-0.195351
-0.194702
-0.194101
-0.193637
-0.193353
-0.193402
-0.193431
-0.193086
-0.194243
-0.195529
-0.196746
-0.197706
-0.198366
-0.198722
-0.198935
-0.199976
-0.203225
-0.199391
-0.199147
-0.198465
-0.197464
-0.196375
-0.195473
-0.196173
-0.196606
-0.196851
-0.197176
-0.197176
-0.196351
-0.194246
-0.190781
-0.186703
-0.183935
-0.182525
-0.183079
-0.234364
-0.19887
-0.198043
-0.197505
-0.19707
-0.196832
-0.196779
-0.196939
-0.197345
-0.198044
-0.199117
-0.200137
-0.199639
-0.201249
-0.202636
-0.203657
-0.204382
-0.204752
-0.204909
-0.205096
-0.207895
-0.210371
-0.206563
-0.206755
-0.206349
-0.205438
-0.20418
-0.202865
-0.203918
-0.20384
-0.203333
-0.202774
-0.201733
-0.199686
-0.196232
-0.191504
-0.186502
-0.182849
-0.181666
-0.181684
-0.231283
-0.199759
-0.198815
-0.198297
-0.198175
-0.198514
-0.199352
-0.200719
-0.202672
-0.205255
-0.208462
-0.212133
-0.211373
-0.213856
-0.215263
-0.215941
-0.216843
-0.217547
-0.218281
-0.219281
-0.226673
-0.225881
-0.221596
-0.221546
-0.220826
-0.219689
-0.217932
-0.215654
-0.217389
-0.215974
-0.214071
-0.211842
-0.208996
-0.205036
-0.199588
-0.193021
-0.18667
-0.182231
-0.180532
-0.180334
-0.228111
-0.200511
-0.199143
-0.198476
-0.198627
-0.199694
-0.201723
-0.204892
-0.209401
-0.215279
-0.222479
-0.232759
-0.23137
-0.234962
-0.235617
-0.235631
-0.238945
-0.242522
-0.247146
-0.252327
-0.272131
-0.260655
-0.253151
-0.249686
-0.245791
-0.243159
-0.240287
-0.235938
-0.239031
-0.235159
-0.231311
-0.22592
-0.219818
-0.212796
-0.20437
-0.195104
-0.186784
-0.181337
-0.179262
-0.178962
-0.224043
-0.199983
-0.197758
-0.196743
-0.19723
-0.19928
-0.202858
-0.208653
-0.216882
-0.227012
-0.239787
-0.260022
-0.267336
-0.264069
-0.260302
-0.258538
-0.272047
-0.284345
-0.303751
-0.324688
-0.378439
-0.332469
-0.313906
-0.298802
-0.282426
-0.274413
-0.269835
-0.262738
-0.264226
-0.261418
-0.257984
-0.246833
-0.234814
-0.222938
-0.210311
-0.197543
-0.186721
-0.180131
-0.17786
-0.177559
-0.217156
-0.19588
-0.192588
-0.191603
-0.193195
-0.197356
-0.203113
-0.213224
-0.224894
-0.23411
-0.250832
-0.306713
-0.308968
-0.280383
-0.263972
-0.259493
-0.303207
-0.323983
-0.38275
-0.463361
-0.565753
-0.454431
-0.401309
-0.369804
-0.316851
-0.292629
-0.287183
-0.277816
-0.266975
-0.287719
-0.297948
-0.276346
-0.254729
-0.235971
-0.2183
-0.20253
-0.189565
-0.181282
-0.177581
-0.176564
-0.205241
-0.185936
-0.182499
-0.183572
-0.188859
-0.198384
-0.205588
-0.225556
-0.226744
-0.216441
-0.241939
-0.415081
-0.307722
-0.198906
-0.20462
-0.24648
-0.331728
-0.288525
-0.387451
-0.60181
-0.759653