# vtk DataFile Version 4.0
Nusif Fluid VTK output
ASCII
DATASET STRUCTURED_POINTS
DIMENSIONS 40 30 1
ORIGIN 0 0 0 
SPACING 0.2 0.2 1
POINT_DATA 1200 

VECTORS velocity double
0.00025369 -7.10323e-06  0
0.000759546 -6.57324e-05  0
0.00137312 -0.000176826  0
0.00224865 -0.00033137  0
0.00346001 -0.000516322  0
0.00505161 -0.000715278  0
0.0070329 -0.000909652  0
0.00937567 -0.00108036  0
0.012015 -0.00120972  0
0.014854 -0.00128354  0
0.0177732 -0.00129315  0
0.0206424 -0.00123672  0
0.0233353 -0.00111971  0
0.0257432 -0.000954386  0
0.0277864 -0.000757538  0
0.0294202 -0.000546824  0
0.0306318 -0.000337126  0
0.0314333 -0.000137953  0
0.0318519 4.52942e-05  0
0.0319257 0.000206305  0
0.0317083 0.000336182  0
0.0312739 0.000423869  0
0.030719 0.0004575  0
0.0301603 0.000428543  0
0.0297257 0.00033484  0
0.0295379 0.000183346  0
0.0296964 -9.82484e-06  0
0.030263 -0.000222876  0
0.0312548 -0.000433203  0
0.0326471 -0.000621575  0
0.0343835 -0.000775387  0
0.0363891 -0.000889147  0
0.0385814 -0.000960472  0
0.0408597 -0.000973781  0
0.0430318 -0.000852987  0
0.0445948 -0.00036374  0
0.0443264 0.000979305  0
0.0399718 0.00372314  0
0.0289439 0.0076528  0
0.0107326 0.0109068  0
0.000195002 -2.38671e-05  0
0.000589846 -0.000202948  0
0.00110776 -0.00054379  0
0.00190964 -0.00101906  0
0.00307674 -0.00158891  0
0.00465899 -0.00220294  0
0.00666858 -0.0028038  0
0.00907644 -0.00333224  0
0.0118127 -0.00373315  0
0.0147715 -0.00396204  0
0.017821 -0.00399146  0
0.0208168 -0.00381536  0
0.0236184 -0.00345098  0
0.026106 -0.00293733  0
0.0281948 -0.00232817  0
0.0298415 -0.00168049  0
0.0310417 -0.00104103  0
0.0318164 -0.000437106  0
0.0321961 0.000118541  0
0.0322163 0.000610847  0
0.0319256 0.00101183  0
0.0313948 0.00128622  0
0.030723 0.0013958  0
0.0300368 0.00131066  0
0.0294797 0.00102176  0
0.0291926 0.000550736  0
0.0292896 -5.10508e-05  0
0.029839 -0.000713632  0
0.0308555 -0.00136438  0
0.032304 -0.00194254  0
0.0341129 -0.00240865  0
0.0361903 -0.00274587  0
0.0384365 -0.00294729  0
0.0407343 -0.00296649  0
0.0428763 -0.00257626  0
0.0443504 -0.00107839  0
0.043946 0.00296695  0
0.0394714 0.0111656  0
0.0284684 0.0228423  0
0.0105291 0.0324691  0
7.43191e-05 7.39517e-05  0
0.000239352 -0.000237942  0
0.000557266 -0.000834353  0
0.00120416 -0.00166876  0
0.00227699 -0.00267242  0
0.00383767 -0.00375741  0
0.0059046 -0.00482266  0
0.00844744 -0.00576264  0
0.0113864 -0.00647818  0
0.0145971 -0.00688843  0
0.0179216 -0.00694249  0
0.0211847 -0.00662804  0
0.024215 -0.00597623  0
0.0268677 -0.0050596  0
0.0290456 -0.00398063  0
0.030711 -0.00284891  0
0.0318803 -0.0017511  0
0.0325975 -0.000728094  0
0.0329019 0.000215851  0
0.0328195 0.00106653  0
0.0323835 0.00177443  0
0.0316561 0.0022738  0
0.0307401 0.00248876  0
0.0297825 0.00235537  0
0.0289628 0.00184873  0
0.0284632 0.00100634  0
0.0284309 -7.42705e-05  0
0.0289487 -0.00125947  0
0.0300248 -0.00241191  0
0.0316006 -0.00341924  0
0.0335716 -0.0042107  0
0.0358103 -0.00475805  0
0.0381836 -0.00505205  0
0.0405453 -0.00501826  0
0.0426656 -0.00428335  0
0.0440252 -0.00170115  0
0.0434437 0.00507956  0
0.0388289 0.0186463  0
0.0278804 0.037817  0
0.0102839 0.053534  0
-0.000117469 0.000476657  0
-0.000319273 8.80992e-06  0
-0.000323326 -0.000889547  0
7.16318e-05 -0.00215172  0
0.000988303 -0.00367699  0
0.00250903 -0.00533401  0
0.0046637 -0.00696916  0
0.00742128 -0.00841977  0
0.0106873 -0.00953084  0
0.0143081 -0.0101738  0
0.0180831 -0.0102647  0
0.0217854 -0.00978066  0
0.0251897 -0.00876903  0
0.0281065 -0.00734811  0
0.0304155 -0.00569186  0
0.03209 -0.00399108  0
0.0331904 -0.00239244  0
0.0338122 -0.000940194  0
0.034011 0.000410312  0
0.0337852 0.00166646  0
0.0331322 0.00274998  0
0.0320949 0.00355014  0
0.0307809 0.00393041  0
0.0293725 0.00376879  0
0.0281127 0.00300492  0
0.0272594 0.00169436  0
0.0270191 2.9021e-06  0
0.0274991 -0.00184083  0
0.0286939 -0.00360658  0
0.0305018 -0.00511253  0
0.0327606 -0.00625045  0
0.0352848 -0.00698367  0
0.0378916 -0.00730831  0
0.0403974 -0.00713079  0
0.0425489 -0.00594339  0
0.0438243 -0.00217662  0
0.0430823 0.00737821  0
0.0383317 0.0262126  0
0.0274144 0.0526162  0
0.0100888 0.0741564  0
-0.000394319 0.00133947  0
-0.00112805 0.000683062  0
-0.00160387 -0.000583736  0
-0.00158355 -0.00237425  0
-0.000905369 -0.0045524  0
0.000545515 -0.00693499  0
0.00281887 -0.00930268  0
0.00588577 -0.0114189  0
0.00963259 -0.0130544  0
0.0138641 -0.0140141  0
0.0183171 -0.0141655  0
0.0226854 -0.013465  0
0.026658 -0.0119775  0
0.0299695 -0.00988486  0
0.0324585 -0.00747112  0
0.0341165 -0.00506297  0
0.0350864 -0.0029102  0
0.0355655 -0.00104317  0
0.0356337 0.000726694  0
0.0352184 0.00247187  0
0.0342447 0.00405232  0
0.032733 0.00527871  0
0.0308087 0.00592289  0
0.0287093 0.00576804  0
0.0267795 0.00468032  0
0.0253984 0.0027397  0
0.0248662 0.000217861  0
0.0253267 -0.00250751  0
0.026747 -0.0050649  0
0.0289512 -0.00717506  0
0.031683 -0.00868636  0
0.0346684 -0.00956441  0
0.0376568 -0.00982912  0
0.0404222 -0.00938698  0
0.0426927 -0.00761444  0
0.0439506 -0.002544  0
0.0430886 0.00984463  0
0.0381957 0.0338849  0
0.0272253 0.0673267  0
0.00999954 0.0944921  0
-0.000774834 0.00285029  0
-0.00224394 0.00196448  0
-0.00338143 0.000242848  0
-0.00389749 -0.00221195  0
-0.00357273 -0.00522606  0
-0.00224145 -0.00855353  0
0.000179628 -0.0118903  0
0.0036696 -0.0149016  0
0.0080926 -0.0172566  0
0.0131986 -0.0186661  0
0.0186377 -0.0189239  0
0.0239905 -0.0179475  0
0.0288185 -0.0158169  0
0.03274 -0.012801  0
0.0355247 -0.0093522  0
0.0371787 -0.00601829  0
0.0379595 -0.00323069  0
0.0382345 -0.00100224  0
0.0381167 0.00120998  0
0.0373599 0.00363552  0
0.0357697 0.00592789  0
0.0334162 0.00774456  0
0.0305159 0.00875889  0
0.0273948 0.0086309  0
0.0245345 0.0070873  0
0.02247 0.00425945  0
0.0216125 0.000570354  0
0.0221502 -0.00337436  0
0.0240021 -0.00698507  0
0.0268711 -0.00984168  0
0.0303531 -0.0117463  0
0.0340445 -0.0126931  0
0.0376078 -0.0127632  0
0.0407762 -0.0118973  0
0.0432725 -0.00938099  0
0.0445933 -0.00286588  0
0.0436545 0.0124576  0
0.0385876 0.0417221  0
0.0274237 0.0821139  0
0.0100539 0.114791  0
-0.00128126 0.00523794  0
-0.00373735 0.00407844  0
-0.00578163 0.00179967  0
-0.00705366 -0.0014931  0
-0.00724796 -0.00558929  0
-0.00611952 -0.0101655  0
-0.00352999 -0.014806  0
0.000518849 -0.0190434  0
0.00586806 -0.0224074  0
0.0122004 -0.0244757  0
0.0190551 -0.024932  0
0.0258661 -0.0236285  0
0.0320318 -0.0206565  0
0.0370251 -0.0164045  0
0.0405202 -0.0115579  0
0.0424693 -0.00694613  0
0.0431238 -0.00326927  0
0.0430615 -0.000707952  0
0.0425041 0.00205927  0
0.0407909 0.00572488  0
0.0375562 0.00913265  0
0.0332935 0.0116262  0
0.0286178 0.0129246  0
0.024012 0.0126647  0
0.0200823 0.0103177  0
0.017441 0.00621053  0
0.0164988 0.000896184  0
0.01746 -0.00472037  0
0.0201719 -0.0097228  0
0.0241636 -0.0134832  0
0.028818 -0.0157587  0
0.0335532 -0.0166238  0
0.0379286 -0.0162871  0
0.0416504 -0.014779  0
0.0444661 -0.0113262  0
0.0459112 -0.00320126  0
0.0449167 0.0152116  0
0.0396118 0.0498252  0
0.0280699 0.097202  0
0.0102702 0.135357  0
-0.00193649 0.00877653  0
-0.00568676 0.00730897  0
-0.0089581 0.00436797  0
-0.0112921 2.65852e-05  0
-0.0122511 -0.00547525  0
-0.0114647 -0.0117153  0
-0.00870642 -0.0181266  0
-0.00394155 -0.0240607  0
0.00265141 -0.0288582  0
0.0106808 -0.0319143  0
0.0195637 -0.0327604  0
0.0285838 -0.031162  0
0.0370043 -0.0272419  0
0.0442195 -0.0215618  0
0.049819 -0.0150307  0
0.0533561 -0.00849609  0
0.0542443 -0.00279942  0
0.0532464 0.000344275  0
0.0513727 0.00389998  0
0.0468594 0.0105728  0
0.0389082 0.0159334  0
0.0296883 0.0187718  0
0.0212685 0.0193396  0
0.0144765 0.0181141  0
0.00985988 0.0138831  0
0.00769505 0.00792135  0
0.00779859 0.000495874  0
0.0102384 -0.00724764  0
0.0147672 -0.0139612  0
0.0207158 -0.0187088  0
0.0272073 -0.0212015  0
0.0334483 -0.0216787  0
0.0389021 -0.0205823  0
0.0432878 -0.0181116  0
0.0464354 -0.0134769  0
0.0479756 -0.00355561  0
0.0468722 0.0181442  0
0.0412208 0.0583292  0
0.0291071 0.112834  0
0.0106224 0.15649  0
-0.0027582 0.0137809  0
-0.00816945 0.0120148  0
-0.0130953 0.00833671  0
-0.0169332 0.00270604  0
-0.0190312 -0.00462292  0
-0.0188197 -0.013092  0
-0.0159349 -0.0219211  0
-0.0102836 -0.0302121  0
-0.00205529 -0.0370594  0
0.00829789 -0.0416288  0
0.0201089 -0.0432749  0
0.0326124 -0.0417078  0
0.0451616 -0.0372044  0
0.0573918 -0.0305849  0
0.0688714 -0.0226284  0
0.0775835 -0.0126905  0
0.0789898 -0.00044354  0
0.0744768 0.00395443  0
0.0694824 0.00761287  0
0.0584028 0.0229081  0
0.0384392 0.0319689  0
0.0166877 0.0341648  0
-0.000144378 0.029657  0
-0.0102315 0.0251363  0
-0.0140345 0.015743  0
-0.0125136 0.00716981  0
-0.00822932 -0.00267406  0
-0.00160536 -0.0126733  0
0.00688926 -0.021089  0
0.0164041 -0.0265733  0
0.0258297 -0.0287815  0
0.0342071 -0.0282436  0
0.0409861 -0.025776  0
0.0459975 -0.0218401  0
0.0492588 -0.0156823  0
0.0506101 -0.00376636  0
0.0491487 0.021395  0
0.0429835 0.0673702  0
0.0302016 0.129163  0
0.0109859 0.178335  0
-0.00375711 0.0205943  0
-0.0112724 0.018662  0
-0.0184588 0.0142733  0
-0.0244766 0.00709577  0
-0.0283062 -0.00261573  0
-0.0290612 -0.0140877  0
-0.0261819 -0.0262229  0
-0.0194973 -0.0377813  0
-0.00918544 -0.0475672  0
0.00432096 -0.0545193  0
0.0204425 -0.0578576  0
0.0386811 -0.0574096  0
0.0590369 -0.0539521  0
0.0819631 -0.04854  0
0.10683 -0.0405678  0
0.12777 -0.0239524  0
0.127595 0.0100354  0
0.111219 0.0148127  0
0.101903 0.0115131  0
0.0797859 0.0526525  0
0.0354968 0.0669263  0
-0.0143985 0.0713043  0
-0.049825 0.0452279  0
-0.0636988 0.0339806  0
-0.0635066 0.0109661  0
-0.0522588 -0.000363281  0
-0.0381627 -0.0130604  0
-0.0218815 -0.0247292  0
-0.00502655 -0.0339178  0
0.0111569 -0.0389763  0
0.0253865 -0.0395659  0
0.0367414 -0.0367227  0
0.044929 -0.0317939  0
0.0501246 -0.0255594  0
0.0527197 -0.0173494  0
0.0529843 -0.00324498  0
0.0504658 0.0253235  0
0.0435899 0.0769527  0
0.030448 0.145975  0
0.0110508 0.200607  0
-0.00498673 0.0296245  0
-0.0152584 0.0279382  0
-0.0256983 0.0230893  0
-0.0350242 0.0140885  0
-0.0415692 0.00123015  0
-0.0439715 -0.0143136  0
-0.0414321 -0.0309545  0
-0.0337039 -0.0470028  0
-0.0208944 -0.0610091  0
-0.00316094 -0.0718612  0
0.0194491 -0.0787933  0
0.0471886 -0.082  0
0.0812497 -0.0833287  0
0.122657 -0.0830492  0
0.168689 -0.0765119  0
0.211863 -0.0516777  0
0.202802 0.047438  0
0.154026 0.0430031  0
0.139137 0.00796767  0
0.104774 0.113119  0
0.0357908 0.120174  0
-0.0617005 0.165886  0
-0.138423 0.0632388  0
-0.151719 0.0435874  0
-0.141247 -0.00885319  0
-0.115378 -0.0172073  0
-0.0880145 -0.0372209  0
-0.0547425 -0.0496641  0
-0.0226484 -0.0574719  0
0.00545698 -0.0592491  0
0.0275303 -0.0551327  0
0.0428527 -0.047369  0
0.051974 -0.0379916  0
0.0559228 -0.0280409  0
0.055827 -0.016902  0
0.0528071 -0.000472044  0
0.0476726 0.0306685  0
0.0401197 0.0865012  0
0.0281118 0.16204  0
0.0103122 0.222202  0
-0.006813 0.0416986  0
-0.0213365 0.0411639  0
-0.0370213 0.0364486  0
-0.0517289 0.0252224  0
-0.0627027 0.00807378  0
-0.0679545 -0.0130454  0
-0.0665008 -0.0357595  0
-0.0580798 -0.0578922  0
-0.0425729 -0.0779833  0
-0.0192471 -0.0954954  0
0.0131209 -0.109688  0
0.0552549 -0.120532  0
0.108614 -0.131773  0
0.171197 -0.138154  0
0.228578 -0.124381  0
0.297618 -0.115584  0
0.277532 0.140928  0
0.168869 0.107278  0
0.102334 0.0253335  0
0.0619361 0.170733  0
0.020107 0.173591  0
-0.0696531 0.29994  0
-0.182608 0.119082  0
-0.225888 0.0446545  0
-0.198923 -0.0469093  0
-0.175324 -0.028172  0
-0.148409 -0.0800849  0
-0.0954761 -0.0925518  0
-0.0436808 -0.0980181  0
0.00234949 -0.0923811  0
0.0362448 -0.0775103  0
0.0562231 -0.059832  0
0.0643932 -0.0423595  0
0.0635428 -0.0263106  0
0.0563391 -0.0108722  0
0.0456023 0.00771505  0
0.0351475 0.0385306  0
0.028126 0.0936729  0
0.0214374 0.174024  0
0.00858517 0.241329  0
-0.0106789 0.0594527  0
-0.0337044 0.0614486  0
-0.0590549 0.0576541  0
-0.0830778 0.0432021  0
-0.101398 0.0198425  0
-0.111416 -0.00909213  0
-0.112182 -0.0399482  0
-0.103554 -0.0703024  0
-0.0851064 -0.0990797  0
-0.0543446 -0.12804  0
-0.00832875 -0.155083  0
0.0502312 -0.175389  0
0.120205 -0.199809  0
0.192365 -0.204425  0
0.213578 -0.136377  0
0.194954 -0.153786  0
0.18884 0.205546  0
0.208636 0.178489  0
0.0836752 0.0238578  0
-0.012908 0.0943746  0
-0.0684621 0.0987019  0
-0.0539962 0.182944  0
-0.013871 0.103564  0
-0.0919392 0.0410385  0
-0.112133 -0.0498411  0
-0.172465 0.011714  0
-0.175314 -0.1437  0
-0.112572 -0.144162  0
-0.0533502 -0.156974  0
0.0109982 -0.14335  0
0.0594459 -0.10843  0
0.0836153 -0.0726042  0
0.0867757 -0.0404612  0
0.0742047 -0.0143309  0
0.0519766 0.00703627  0
0.0266396 0.0263358  0
0.00781727 0.0496418  0
0.00555241 0.0923022  0
0.0126448 0.175445  0
0.00785904 0.258  0
-0.0198986 0.0902802  0
-0.0614315 0.0956545  0
-0.105126 0.0929432  0
-0.14505 0.0723105  0
-0.174707 0.0391614  0
-0.191187 -0.00146464  0
-0.193507 -0.0440415  0
-0.182109 -0.0857898  0
-0.158454 -0.125252  0
-0.118312 -0.172329  0
-0.0575871 -0.217096  0
0.00639103 -0.235477  0
0.0673394 -0.270316  0
0.0995182 -0.23804  0
0.162195 -0.180953  0
0.0302472 -0.0738361  0
0.0122309 0.102773  0
0.0944201 0.102773  0
0 0  0
0 0  0
0 0  0
0 0  0
-0.0459696 0.0205193  0
-0.0565964 0.0205193  0
-0.11754 -0.0148236  0
-0.132393 -0.0645122  0
-0.0509606 -0.180876  0
-0.0525113 -0.167953  0
-0.0229448 -0.221634  0
0.0461839 -0.211715  0
0.105336 -0.147211  0
0.131954 -0.0841572  0
0.126666 -0.0263267  0
0.0939838 0.0172405  0
0.0465038 0.045625  0
8.03602e-05 0.0599584  0
-0.0281609 0.0635323  0
-0.0196278 0.0725921  0
0.0128169 0.156067  0
0.0146731 0.280756  0
-0.0371801 0.147596  0
-0.111136 0.154288  0
-0.184355 0.15167  0
-0.247447 0.117047  0
-0.289979 0.0670598  0
-0.30924 0.00682342  0
-0.303413 -0.0553926  0
-0.27762 -0.111189  0
-0.245969 -0.154719  0
-0.202413 -0.226119  0
-0.139233 -0.286884  0
-0.104544 -0.264138  0
-0.0347402 -0.283316  0
0.0672909 -0.11902  0
0.0497591 -0.11902  0
0 0  0
0 0  0
0 0  0
0 0  0
0 0  0
0 0  0
0 0  0
0 0  0
0 0  0
0 0  0
-0.0254803 -0.0904379  0
-0.0581971 -0.0904379  0
0.0122254 -0.209521  0
0.0898844 -0.252638  0
0.119957 -0.279575  0
0.166239 -0.184336  0
0.190891 -0.0978525  0
0.184088 -9.00875e-05  0
0.132822 0.0754023  0
0.057473 0.11074  0
-0.00729582 0.106482  0
-0.0472106 0.0856088  0
-0.036979 0.0321938  0
0.0244895 0.102995  0
0.0306268 0.326278  0
-0.0564823 0.241373  0
-0.1635 0.241822  0
-0.268817 0.243116  0
-0.354809 0.175128  0
-0.399119 0.0962632  0
-0.406095 0.00429893  0
-0.374896 -0.0894538  0
-0.32832 -0.149167  0
-0.298761 -0.177734  0
-0.2907 -0.254502  0
-0.226339 -0.288037  0
-0.133261 -0.132069  0
-0.052272 -0.132069  0
0 0  0
0 0  0
0 0  0
0 0  0
0 0  0
0 0  0
0 0  0
0 0  0
0 0  0
0 0  0
0 0  0
0 0  0
0 0  0
0 0  0
0.0449422 -0.126319  0
0.144219 -0.281087  0
0.198553 -0.309535  0
0.197089 -0.198968  0
0.211282 -0.121728  0
0.216788 0.0255308  0
0.165311 0.152972  0
0.089072 0.185204  0
0.0455583 0.140744  0
-0.0117317 0.148882  0
-0.0724803 0.0196578  0
-0.0699483 0.0517507  0
-0.027679 0.329336  0
-0.174691 0.295163  0
-0.349383 0.29247  0
-0.357032 0.305656  0
-0.371494 0.213264  0
-0.383313 0.114477  0
-0.386591 -0.00344077  0
-0.384864 -0.11442  0
-0.338278 -0.142543  0
-0.256843 -0.0928974  0
-0.256346 -0.127251  0
-0.14535 -0.127251  0
0 0  0
0 0  0
0 0  0
0 0  0
0 0  0
0 0  0
0 0  0
0 0  0
0 0  0
0 0  0
0 0  0
0 0  0
0 0  0
0 0  0
0 0  0
0 0  0
0 0  0
0.0992767 -0.154768  0
0.142537 -0.154768  0
0.140042 -0.167389  0
0.193562 -0.137274  0
0.18732 0.0420367  0
0.152075 0.223523  0
0.121792 0.221621  0
0.120511 0.149453  0
0.112972 0.173513  0
0.0077255 0.0158581  0
-0.204919 0.0185801  0
-0.159927 0.150828  0
-0.174691 0.146235  0
-0.359801 0.146235  0
-0.320836 0.156653  0
-0.274583 0.110039  0
-0.27069 0.0597407  0
-0.26964 -0.00258365  0
-0.330238 -0.0572102  0
-0.192432 -0.0572102  0
0 0  0
0 0  0
0 0  0
0 0  0
0 0  0
0 0  0
0 0  0
0 0  0
0 0  0
0 0  0
0 0  0
0 0  0
0 0  0
0 0  0
0 0  0
0 0  0
0 0  0
0 0  0
0 0  0
0 0  0
0 0  0
0 0  0
0.0967809 -0.068637  0
0.100785 -0.068637  0
0.0726567 0.150458  0
0.137305 0.252638  0
0.137305 0.223013  0
0.128908 0.186233  0
0.0602554 0.0747267  0
0 0  0
0 0  0
0 0  0
0 0  0
0 0  0
0 0  0
0 0  0
0 0  0
0 0  0
0 0  0
0 0  0
0 0  0
0 0  0
0 0  0
0 0  0
0 0  0
0 0  0
0 0  0
0 0  0
0 0  0
0 0  0
0 0  0
0 0  0
0 0  0
0 0  0
0 0  0
0 0  0
0 0  0
0 0  0
0 0  0
0 0  0
0 0  0
0 0  0
0 0  0
0 0  0
0.0686523 0.126319  0
0.152117 0.126319  0
0.152117 0.111506  0
0.0686523 0.111506  0
0 0  0
0 0  0
0 0  0
0 0  0
0 0  0
0 0  0
0 0  0
0 0  0
0 0  0
0 0  0
0 0  0
0 0  0
0 0  0
0 0  0
0 0  0
0 0  0
0 0  0
0 0  0
0 0  0
0 0  0
0 0  0
0 0  0
0 0  0
0 0  0
0 0  0
0 0  0
0 0  0
0 0  0
0 0  0
0 0  0
0 0  0
0 0  0
0 0  0
0 0  0
0 0  0
0 0  0
0 0  0
0 0  0
0 0  0
0 0  0
0 0  0
0 0  0
0 0  0
0 0  0
0 0  0
0 0  0
0 0  0
0 0  0
0 0  0
0 0  0
0 0  0
0 0  0
0 0  0
0 0  0
0 0  0
0 0  0
0 0  0
0 0  0
0 0  0
0 0  0
0 0  0
0 0  0
0 0  0
0 0  0
0 0  0
0 0  0
0 0  0
0 0  0
0 0  0
0 0  0
0 0  0
0 0  0
0 0  0
0 0  0
0 0  0
0 0  0
0 0  0
0 0  0
0 0  0
0 0  0
0 0  0
0 0  0
0 0  0
0 0  0
0 0  0
0 0  0
0 0  0
0 0  0
0 0  0
0 0  0
0 0  0
0 0  0
0 0  0
0 0  0
0 0  0
0 0  0
0 0  0
0 0  0
0 0  0
0 0  0
0 0  0
0 0  0
0 0  0
0 0  0
0 0  0
0 0  0
0 0  0
0 0  0
0 0  0
0 0  0
0 0  0
0 0  0
0 0  0
0 0  0
0 0  0
0 0  0
0 0  0
0 0  0
0 0  0
0 0  0
0 0  0
0 0  0
0 0  0
0 0  0
0 0  0
0 0  0
0 0  0
0 0  0
0 0  0
0 0  0
0 0  0
0 0  0
0 0  0
0 0  0
0 0  0
0 0  0
0 0  0
0 0  0
0 0  0
0 0  0
0 0  0
0 0  0
0 0  0
0 0  0
0 0  0
0 0  0
0 0  0
0 0  0
0 0  0
0 0  0
0 0  0
0 0  0
0 0  0
0 0  0
0 0  0
0 0  0
0 0  0
0 0  0
0 0  0
0 0  0
0 0  0
0 0  0
0 0  0
0 0  0
0 0  0
0 0  0
0 0  0
0 0  0
0 0  0
0 0  0
0 0  0
0 0  0
0 0  0
0 0  0
0 0  0
0 0  0
0 0  0
0 0  0
0 0  0
0 0  0
0 0  0
0 0  0
0 0  0
0 0  0
0 0  0
0 0  0
0 0  0
0 0  0
0 0  0
0 0  0
0 0  0
0 0  0
0 0  0
0 0  0
0 0  0
0 0  0
0 0  0
0 0  0
0 0  0
0 0  0
0 0  0
0 0  0
0 0  0
0 0  0
0 0  0
0 0  0
0 0  0
0 0  0
0 0  0
0 0  0
0 0  0
0 0  0
0 0  0
0 0  0
0 0  0
0 0  0
0 0  0
0 0  0
0 0  0
0 0  0
0 0  0
0 0  0
0 0  0
0 0  0
0 0  0
0 0  0
0 0  0
0 0  0
0 0  0
0 0  0
0 0  0
0 0  0
0 0  0
0 0  0
0 0  0
0 0  0
0 0  0
0 0  0
0 0  0
0 0  0
0 0  0
0 0  0
0 0  0
0 0  0
0 0  0
0 0  0
0 0  0
0 0  0
0 0  0
0 0  0
0 0  0
0 0  0
0 0  0
0 0  0
0 0  0
0 0  0
0 0  0
0 0  0
0 0  0
0 0  0
0 0  0
0 0  0
0 0  0
0 0  0
0 0  0
0 0  0
0 0  0
0 0  0
0 0  0
0 0  0
0 0  0
0 0  0
0 0  0
0 0  0
0 0  0
0 0  0
0 0  0
0 0  0
0 0  0
0 0  0
0 0  0
0 0  0
0 0  0
0 0  0
0 0  0
0 0  0
0 0  0
0 0  0
0 0  0
0 0  0
0 0  0
0 0  0
0 0  0
0 0  0
0 0  0
0 0  0
0 0  0
0 0  0
0 0  0
0 0  0
0 0  0
0 0  0
0 0  0
0 0  0
0 0  0
0 0  0
0 0  0
0 0  0
0 0  0
0 0  0
0 0  0
0 0  0
0 0  0
0 0  0
0 0  0
0 0  0
0 0  0
0 0  0
0 0  0
0 0  0
0 0  0
0 0  0
0 0  0
0 0  0
0 0  0
0 0  0
0 0  0
0 0  0
0 0  0
0 0  0
0 0  0
0 0  0
0 0  0
0 0  0
0 0  0
0 0  0
0 0  0
0 0  0
0 0  0
0 0  0
0 0  0
0 0  0
0 0  0
0 0  0
0 0  0
0 0  0
0 0  0
0 0  0
0 0  0
0 0  0
0 0  0
0 0  0
0 0  0
0 0  0
0 0  0
0 0  0
0 0  0
0 0  0
0 0  0
0 0  0
0 0  0
0 0  0
0 0  0
0 0  0
0 0  0
0 0  0
0 0  0
0 0  0
0 0  0
0 0  0
0 0  0
0 0  0
0 0  0
0 0  0
0 0  0
0 0  0
0 0  0
0 0  0
0 0  0
0 0  0
0 0  0
0 0  0
0 0  0
0 0  0
0 0  0
0 0  0
0 0  0
0 0  0
0 0  0
0 0  0
0 0  0
0 0  0
0 0  0
0 0  0
0 0  0
0 0  0
0 0  0
0 0  0
0 0  0
0 0  0
0 0  0
0 0  0
0 0  0
0 0  0
0 0  0
0 0  0
0 0  0
0 0  0
0 0  0
0 0  0
0 0  0
0 0  0
0 0  0
0 0  0
0 0  0
0 0  0
0 0  0
0 0  0
0 0  0
0 0  0
0 0  0
0 0  0
0 0  0
0 0  0
0 0  0
0 0  0
0 0  0
0 0  0
0 0  0
0 0  0
0 0  0
0 0  0
0 0  0
0 0  0
0 0  0
0 0  0
0 0  0
0 0  0
0 0  0
0 0  0
0 0  0
0 0  0
0 0  0
0 0  0

SCALARS pressure double 1
LOOKUP_TABLE default
2.04599
2.04478
2.04234
2.0387
2.03391
2.02804
2.02116
2.0134
2.00489
1.9958
1.98632
1.97667
1.96708
1.95782
1.94916
1.94135
1.93465
1.92928
1.92545
1.92326
1.92279
1.92405
1.92694
1.93135
1.93709
1.94394
1.95165
1.95996
1.96861
1.97737
1.98601
1.99432
2.00215
2.00936
2.01586
2.02157
2.02646
2.03048
2.03352
2.03529
1.8547
1.85346
1.85099
1.8473
1.84243
1.83646
1.82946
1.82155
1.81287
1.80358
1.79388
1.78399
1.77415
1.76463
1.7557
1.74764
1.74071
1.73517
1.73119
1.72894
1.72848
1.7298
1.73283
1.73742
1.74338
1.75048
1.75844
1.76701
1.77591
1.78489
1.79372
1.80219
1.81015
1.81746
1.82403
1.82979
1.83471
1.83875
1.84181
1.8436
1.67212
1.67085
1.66831
1.66452
1.65951
1.65335
1.64611
1.63792
1.62889
1.61921
1.60907
1.59869
1.58834
1.57828
1.56881
1.56023
1.55284
1.5469
1.54266
1.54028
1.53983
1.5413
1.5446
1.54957
1.55598
1.56358
1.57208
1.58117
1.59056
1.59999
1.60921
1.61802
1.62623
1.63374
1.64045
1.6463
1.65127
1.65533
1.6584
1.66018
1.49827
1.49695
1.49432
1.49038
1.48517
1.47874
1.47115
1.46253
1.45299
1.44272
1.4319
1.42079
1.40964
1.39876
1.38846
1.37907
1.37093
1.36438
1.35971
1.35711
1.35668
1.35839
1.36212
1.36769
1.37482
1.38322
1.39254
1.40245
1.41261
1.42273
1.43255
1.44185
1.45045
1.45824
1.46514
1.47111
1.47615
1.48024
1.4833
1.48507
1.33318
1.33181
1.32907
1.32495
1.31948
1.3127
1.30466
1.29546
1.28524
1.27416
1.26244
1.25033
1.2381
1.22608
1.21461
1.20407
1.19486
1.18742
1.18211
1.17921
1.17882
1.18088
1.18524
1.19167
1.19983
1.20936
1.21985
1.23089
1.24212
1.2532
1.26383
1.27379
1.2829
1.29105
1.29818
1.30429
1.30939
1.3135
1.31654
1.31829
1.1769
1.17547
1.17262
1.1683
1.16254
1.15533
1.14673
1.13683
1.12574
1.11366
1.10078
1.08738
1.07375
1.06025
1.04724
1.03515
1.02446
1.01573
1.00954
1.00624
1.00592
1.00849
1.01372
1.02133
1.0309
1.04196
1.05401
1.06657
1.0792
1.09151
1.10319
1.11399
1.12372
1.13229
1.13968
1.1459
1.15103
1.15511
1.15811
1.15982
1.02949
1.02801
1.02504
1.02053
1.01444
1.00676
0.997511
0.98676
0.97464
0.961317
0.947017
0.932021
0.916661
0.901308
0.88636
0.872247
0.859501
0.848932
0.841494
0.837698
0.837557
0.840849
0.847237
0.856435
0.867895
0.880973
0.895058
0.90957
0.923987
0.937868
0.950849
0.962656
0.973111
0.982137
0.989745
0.996019
1.00109
1.00507
1.00796
1.0096
0.89097
0.889468
0.886421
0.881735
0.875328
0.867142
0.857164
0.845441
0.832089
0.817297
0.801288
0.784365
0.766898
0.749299
0.731982
0.715327
0.699742
0.686401
0.677202
0.672887
0.673146
0.677505
0.685338
0.696659
0.710637
0.726343
0.743043
0.760022
0.776673
0.792494
0.807061
0.820067
0.831332
0.840805
0.84855
0.854731
0.859574
0.863298
0.86599
0.867518
0.761347
0.759873
0.756829
0.752042
0.745354
0.736655
0.725882
0.713064
0.698295
0.681771
0.663733
0.644499
0.624491
0.604199
0.584095
0.564494
0.544985
0.527064
0.515335
0.510716
0.51186
0.517948
0.527254
0.541509
0.558898
0.577971
0.597998
0.618038
0.637469
0.655684
0.672173
0.68658
0.698725
0.70859
0.716306
0.722143
0.726472
0.729688
0.732025
0.733393
0.640556
0.639213
0.636325
0.631574
0.624688
0.615498
0.603875
0.58984
0.573477
0.554922
0.534479
0.512447
0.489289
0.465642
0.442177
0.419824
0.395238
0.36869
0.35336
0.349076
0.352013
0.36142
0.370878
0.389982
0.412306
0.435554
0.459755
0.483659
0.506553
0.527766
0.546616
0.562659
0.575739
0.585888
0.593311
0.598407
0.601767
0.604084
0.605855
0.60701
0.528401
0.527397
0.524945
0.520462
0.51351
0.503862
0.491323
0.47594
0.457819
0.436941
0.41358
0.388063
0.360693
0.332357
0.303551
0.279628
0.250681
0.205784
0.186476
0.182698
0.188833
0.203358
0.209401
0.24
0.270045
0.297738
0.327418
0.356361
0.383932
0.409032
0.430902
0.448882
0.462957
0.473239
0.48
0.483793
0.48552
0.486394
0.48733
0.488213
0.424442
0.424199
0.422672
0.418807
0.41195
0.401816
0.388231
0.371315
0.351354
0.327926
0.300815
0.270845
0.237237
0.202311
0.161596
0.134527
0.110775
0.0210537
0.0107637
0.00899282
0.0112758
0.0337485
0.0229155
0.0918613
0.131372
0.162196
0.198818
0.234539
0.26887
0.299591
0.325558
0.345896
0.361079
0.371353
0.377006
0.378771
0.37801
0.376786
0.376523
0.376991
0.327706
0.32916
0.329361
0.326519
0.31983
0.308998
0.293989
0.275128
0.253508
0.227404
0.195194
0.159892
0.115454
0.0775958
0.00630698
0.00213455
0.0362084
0
0
0
0
0
0
-0.0135718
0.0100447
0.0207255
0.0699974
0.11594
0.159532
0.198972
0.230751
0.254081
0.270693
0.280963
0.285112
0.283956
0.279659
0.275664
0.273602
0.273243
0.235853
0.241451
0.244449
0.242753
0.236
0.223891
0.206458
0.184441
0.162239
0.133524
0.0932296
0.0569621
-0.0169944
-0.00686643
0
0
0
0
0
0
0
0
0
0
0
0
-0.0384202
0.00136415
0.054044
0.105866
0.145368
0.172505
0.191339
0.202415
0.204802
0.199429
0.190153
0.182218
0.177449
0.175394
0.142301
0.159969
0.166083
0.164534
0.157113
0.143364
0.121788
0.0927977
0.0750102
0.0451477
-0.0182616
-0.0102736
0
0
0
0
0
0
0
0
0
0
0
0
0
0
0
0
-0.0413881
0.0201363
0.0673811
0.0983926
0.120445
0.134463
0.134628
0.123014
0.10669
0.0930324
0.0829047
0.0770688
0.0272936
0.0871966
0.0891667
0.085641
0.0781403
0.0652102
0.0402083
-0.0115594
-0.00353008
-0.020777
0
0
0
0
0
0
0
0
0
0
0
0
0
0
0
0
0
0
0
-0.0485688
0.00148672
0.0335241
0.0565477
0.074902
0.0721897
0.0536601
0.0247605
0.00589457
-0.00738967
-0.0141444
0
0.06135
0.00268817
0.00327764
0.00264383
-0.000653538
-0.0150773
0
0
0
0
0
0
0
0
0
0
0
0
0
0
0
0
0
0
0
0
0
0
0
0
-0.0148743
0.00330827
0.0321023
0.0236747
0.000122286
0
0
0
0
0
0
0
0
0
0
0
0
0
0
0
0
0
0
0
0
0
0
0
0
0
0
0
0
0
0
0
0
0
0
0
0
0
0.0353899
-0.00252895
0
0
0
0
0
0
0
0
0
0
0
0
0
0
0
0
0
0
0
0
0
0
0
0
0
0
0
0
0
0
0
0
0
0
0
0
0
0
0
0
0
0
0
0
0
0
0
0
0
0
0
0
0
0
0
0
0
0
0
0
0
0
0
0
0
0
0
0
0
0
0
0
0
0
0
0
0
0
0
0
0
0
0
0
0
0
0
0
0
0
0
0
0
0
0
0
0
0
0
0
0
0
0
0
0
0
0
0
0
0
0
0
0
0
0
0
0
0
0
0
0
0
0
0
0
0
0
0
0
0
0
0
0
0
0
0
0
0
0
0
0
0
0
0
0
0
0
0
0
0
0
0
0
0
0
0
0
0
0
0
0
0
0
0
0
0
0
0
0
0
0
0
0
0
0
0
0
0
0
0
0
0
0
0
0
0
0
0
0
0
0
0
0
0
0
0
0
0
0
0
0
0
0
0
0
0
0
0
0
0
0
0
0
0
0
0
0
0
0
0
0
0
0
0
0
0
0
0
0
0
0
0
0
0
0
0
0
0
0
0
0
0
0
0
0
0
0
0
0
0
0
0
0
0
0
0
0
0
0
0
0
0
0
0
0
0
0
0
0
0
0
0
0
0
0
0
0
0
0
0
0
0
0
0
0
0
0
0
0
0
0
0
0
0
0
0
0
0
0
0
0
0
0
0
0
0
0
0
0
0
0
0
0
0
0
0
0
0
0
0
0
0
0
0
0
0
0
0
0
0
0
0
0
0
0
0
0
0
0
0
0
0
0
0
0
0
0
0
0
0
0
0
0
0
0
0
0
0
0
0
0
0
0
0
0
0
0
0
0
0
0
0
0
0
0
0
0
0
0
0
0
0
0
0
0
0
0
0
0
0
0
0
0
0
0
0
0
0
0
0
0
0
0
0
0
0
0
0
0
0
0
0
0
0
0
0
0
0
0
0
0
0
0
0
0
0
0
0
0
0
0
0
0
0
0
0
0
0
0
0
0
0
0
0
0
0
0
0
0
0
0
0
0
0
0
0
0
0
0
0
0
0
0
0
0
0
0
0
0
0
0
0
0
0
0
0
0
0
0
0
0
0
0
0
0
SCALARS rhs double 1
LOOKUP_TABLE default
-4.67875
-4.73936
-4.74176
-4.74379
-4.74582
-4.74785
-4.74987
-4.75185
-4.75376
-4.75558
-4.75727
-4.75881
-4.76019
-4.76139
-4.76243
-4.7633
-4.76398
-4.76448
-4.76478
-4.76489
-4.76481
-4.76454
-4.76411
-4.76352
-4.7628
-4.76199
-4.76112
-4.76023
-4.75934
-4.75848
-4.75767
-4.7569
-4.7562
-4.75556
-4.75496
-4.7544
-4.75428
-4.75622
-4.76292
-4.77509
0.259549
0.202451
0.2016
0.201091
0.200577
0.200052
0.19951
0.198994
0.19849
0.198045
0.197652
0.19734
0.197094
0.196915
0.196788
0.19671
0.196667
0.196671
0.196714
0.196796
0.196922
0.197088
0.197294
0.197536
0.197804
0.198082
0.198353
0.198597
0.198816
0.199007
0.199172
0.199318
0.199448
0.199574
0.19972
0.199891
0.199705
0.197291
0.189516
0.176163
0.255512
0.200873
0.200067
0.199575
0.199082
0.198559
0.198036
0.197516
0.197021
0.196572
0.196188
0.195876
0.195641
0.195467
0.195352
0.195276
0.19524
0.195245
0.195294
0.195379
0.195509
0.195682
0.195896
0.196146
0.196423
0.19671
0.196988
0.197231
0.197455
0.197652
0.197825
0.197981
0.198126
0.198267
0.198427
0.198607
0.198444
0.196112
0.188641
0.175908
0.251337
0.199542
0.198766
0.198293
0.197809
0.197263
0.196731
0.196193
0.195685
0.195218
0.194824
0.194507
0.194273
0.194109
0.194002
0.193936
0.193907
0.193921
0.193969
0.194058
0.194194
0.194376
0.194601
0.194863
0.195153
0.195453
0.195745
0.195989
0.196225
0.19644
0.196634
0.196814
0.196983
0.197147
0.197313
0.19747
0.197248
0.194896
0.187707
0.175626
0.246689
0.198101
0.197356
0.196866
0.196341
0.195901
0.195276
0.194699
0.194158
0.193665
0.193249
0.192923
0.19269
0.192541
0.192455
0.192418
0.192412
0.192451
0.192496
0.192583
0.192727
0.192919
0.193151
0.193417
0.193713
0.194026
0.194337
0.194576
0.194837
0.195086
0.195319
0.195539
0.195745
0.195933
0.196083
0.196156
0.195734
0.193185
0.186188
0.174724
0.241587
0.19653
0.195813
0.195331
0.19472
0.194141
0.193768
0.193008
0.192375
0.191832
0.191375
0.191021
0.190775
0.190625
0.190561
0.190575
0.19065
0.190786
0.19081
0.190871
0.191033
0.191257
0.191496
0.191731
0.191998
0.192307
0.192647
0.192865
0.193197
0.193525
0.193837
0.194129
0.194394
0.19461
0.194717
0.194624
0.193836
0.190876
0.18395
0.173044
0.23603
0.194781
0.194081
0.193603
0.192845
0.192199
0.191515
0.191319
0.190194
0.189553
0.189003
0.188551
0.188185
0.187887
0.187706
0.187795
0.188188
0.188737
0.188613
0.188455
0.188702
0.18912
0.189462
0.189576
0.189678
0.189924
0.190324
0.190462
0.191048
0.191587
0.19208
0.192519
0.192889
0.193151
0.193192
0.192858
0.191559
0.188007
0.181021
0.170544
0.229974
0.192767
0.192051
0.191485
0.190633
0.189751
0.188927
0.188268
0.187962
0.186482
0.18569
0.184875
0.183899
0.18268
0.181473
0.181274
0.183254
0.185488
0.184734
0.182561
0.183056
0.184228
0.185662
0.18567
0.185197
0.185745
0.186096
0.186292
0.187646
0.188827
0.189794
0.190562
0.191148
0.191515
0.191513
0.190935
0.189158
0.185058
0.17788
0.167481
0.223328
0.190329
0.18951
0.188758
0.187757
0.186343
0.185264
0.184139
0.184196
0.182281
0.180399
0.178298
0.174889
0.169709
0.162769
0.157066
0.165362
0.179086
0.175396
0.157816
0.160286
0.157184
0.167945
0.170929
0.173368
0.175811
0.173985
0.178939
0.181276
0.183983
0.186326
0.18792
0.189005
0.189659
0.189787
0.189248
0.187626
0.183739
0.176186
0.164845
0.215932
0.187161
0.185971
0.184772
0.183481
0.180826
0.17928
0.17768
0.17654
0.176337
0.170462
0.164349
0.153264
0.136157
0.109584
0.0550533
0.0794196
0.165482
0.151831
0.0607773
0.0772889
-0.0378289
0.113341
0.119727
0.132561
0.140551
0.142496
0.154557
0.168583
0.174165
0.179847
0.183714
0.186073
0.187501
0.188298
0.18891
0.189686
0.188456
0.179883
0.164883
0.207395
0.182483
0.18006
0.177574
0.175669
0.169744
0.167323
0.164928
0.161881
0.162653
0.149462
0.132313
0.103189
0.0675815
0.0365591
-0.250692
-0.285551
0.0901479
0.164195
0.061597
-0.152597
-0.503405
-0.0135717
0.0316355
0.0307215
0.106767
0.0759537
0.104195
0.129278
0.154178
0.164801
0.175165