# vtk DataFile Version 4.0
Nusif Fluid VTK output
ASCII
DATASET STRUCTURED_POINTS
DIMENSIONS 40 30 1
ORIGIN 0 0 0 
SPACING 0.2 0.2 1
POINT_DATA 1200 

VECTORS velocity double
-0.00300242 0.0028952  0
-0.008971 0.00289059  0
-0.0148873 0.00285816  0
-0.0207358 0.0028129  0
-0.0264536 0.00273142  0
-0.0319824 0.0025773  0
-0.0372063 0.0023788  0
-0.0419418 0.00212443  0
-0.0460062 0.00175136  0
-0.0492062 0.00123978  0
-0.0512888 0.000599128  0
-0.051964 -0.00017105  0
-0.0509434 -0.00106324  0
-0.0480038 -0.00208913  0
-0.0429739 -0.00316898  0
-0.035763 -0.00425852  0
-0.0264383 -0.00528219  0
-0.0152115 -0.00615847  0
-0.00244663 -0.00681504  0
0.0113562 -0.00719225  0
0.0256059 -0.00725841  0
0.0396802 -0.007013  0
0.0529881 -0.00648904  0
0.065032 -0.00574272  0
0.0754477 -0.00485458  0
0.0840283 -0.0039045  0
0.0907279 -0.00296899  0
0.095637 -0.00211019  0
0.0989506 -0.00136969  0
0.100929 -0.00077125  0
0.101864 -0.00032234  0
0.10205 -2.03151e-05  0
0.101775 0.000138006  0
0.101314 0.000163408  0
0.100929 6.75852e-05  0
0.100757 -4.61874e-05  0
0.10019 0.000462784  0
0.0955616 0.00401326  0
0.0763556 0.0150415  0
0.0306194 0.0305441  0
-0.00300713 0.00872374  0
-0.00900814 0.00869305  0
-0.0149649 0.00862163  0
-0.0208622 0.00849032  0
-0.0266889 0.00822828  0
-0.0323347 0.00785007  0
-0.0376585 0.00730454  0
-0.0425682 0.0065062  0
-0.0468897 0.00538691  0
-0.0503574 0.0038961  0
-0.0526988 0.0019954  0
-0.0536257 -0.000324101  0
-0.0528609 -0.00306468  0
-0.0501091 -0.00615143  0
-0.0451427 -0.00945874  0
-0.0378756 -0.0128016  0
-0.0283378 -0.0159551  0
-0.0167442 -0.0186634  0
-0.00348059 -0.0206901  0
0.0109123 -0.0218529  0
0.0257845 -0.0220532  0
0.0404487 -0.0212883  0
0.0542575 -0.0196569  0
0.0666656 -0.0173466  0
0.0772848 -0.0145998  0
0.085912 -0.0116746  0
0.0925196 -0.00880842  0
0.0972335 -0.00619054  0
0.100287 -0.00394828  0
0.101974 -0.00214717  0
0.102613 -0.000804251  0
0.102509 9.03712e-05  0
0.101953 0.000569344  0
0.101211 0.000655209  0
0.100497 0.000395694  0
0.0998805 0.000131907  0
0.0986607 0.00179145  0
0.0931858 0.0125081  0
0.0735658 0.0450937  0
0.0292455 0.0902697  0
-0.00303353 0.0145971  0
-0.0090737 0.0145562  0
-0.0150901 0.0144678  0
-0.021129 0.0142457  0
-0.0270936 0.0139145  0
-0.0329055 0.0133761  0
-0.0385492 0.0125145  0
-0.0438584 0.0112311  0
-0.0486155 0.00942948  0
-0.052597 0.00700444  0
-0.0555083 0.00387375  0
-0.0570234 -2.51933e-05  0
-0.0567701 -0.00467282  0
-0.0543972 -0.00995411  0
-0.0496234 -0.0156702  0
-0.0422588 -0.0215023  0
-0.0322999 -0.0270329  0
-0.019946 -0.0318075  0
-0.00563655 -0.0353927  0
0.00999198 -0.0374447  0
0.0261699 -0.0377812  0
0.0420758 -0.0363953  0
0.056929 -0.0334723  0
0.0700877 -0.0293579  0
0.0811175 -0.024496  0
0.0898166 -0.0193595  0
0.0962087 -0.0143753  0
0.100494 -0.00987327  0
0.102992 -0.00606447  0
0.104071 -0.00304572  0
0.104099 -0.000829173  0
0.10342 0.000639692  0
0.102327 0.00142032  0
0.101048 0.00157464  0
0.0997661 0.00121797  0
0.098481 0.000956675  0
0.0964321 0.00398359  0
0.090134 0.0218386  0
0.0704613 0.0748054  0
0.0278495 0.147239  0
-0.00304873 0.0205016  0
-0.0091387 0.0204805  0
-0.0152761 0.0203693  0
-0.0214156 0.0201921  0
-0.0275582 0.019846  0
-0.0337344 0.0191954  0
-0.0398036 0.01812  0
-0.0456535 0.0164815  0
-0.0511166 0.0141101  0
-0.0559133 0.0108353  0
-0.0597286 0.0065044  0
-0.0621722 0.00101518  0
-0.0627897 -0.00562787  0
-0.0611064 -0.0133241  0
-0.0566911 -0.0217748  0
-0.0492385 -0.0305006  0
-0.0386432 -0.0388635  0
-0.025103 -0.0461372  0
-0.00911805 -0.0516205  0
0.00852263 -0.0547515  0
0.0268341 -0.0552288  0
0.0447576 -0.0530353  0
0.0612941 -0.0484747  0
0.0756403 -0.0421051  0
0.0872815 -0.0346521  0
0.0960317 -0.0268733  0
0.102006 -0.0194374  0
0.105544 -0.0128391  0
0.107114 -0.00736759  0
0.107209 -0.00312858  0
0.106297 -7.7354e-05  0
0.104755 0.00189553  0
0.102871 0.00292196  0
0.100867 0.00312718  0
0.0988748 0.00270858  0
0.0968475 0.00254535  0
0.0940326 0.00702268  0
0.0871678 0.0317223  0
0.0677453 0.103773  0
0.0267086 0.201674  0
-0.00305552 0.0264381  0
-0.00920753 0.0264252  0
-0.0153792 0.0264137  0
-0.0216522 0.0263362  0
-0.0280903 0.0260414  0
-0.0346319 0.0254226  0
-0.0412633 0.0243095  0
-0.0478683 0.0224773  0
-0.0542618 0.0196954  0
-0.0602028 0.0157181  0
-0.0653285 0.0102878  0
-0.0691557 0.00323101  0
-0.0711092 -0.0055485  0
-0.0705443 -0.0159405  0
-0.0668 -0.027596  0
-0.0593474 -0.0398519  0
-0.0479363 -0.0517758  0
-0.032702 -0.0622567  0
-0.0142522 -0.0701953  0
0.00638252 -0.0747095  0
0.0278867 -0.0753326  0
0.0488284 -0.0720192  0
0.0678575 -0.0652413  0
0.0839091 -0.0558831  0
0.096349 -0.0450818  0
0.105032 -0.0340056  0
0.110243 -0.0236418  0
0.112564 -0.0146733  0
0.112702 -0.00745144  0
0.111361 -0.00202968  0
0.109122 0.00173877  0
0.106417 0.00408549  0
0.103537 0.00525362  0
0.100651 0.0054441  0
0.0978627 0.00493209  0
0.0951141 0.00485541  0
0.0916921 0.0107059  0
0.0845355 0.0418153  0
0.065541 0.131851  0
0.0258341 0.254094  0
-0.00306268 0.0323479  0
-0.00916473 0.0324189  0
-0.0153658 0.0325662  0
-0.0217883 0.0326371  0
-0.0284723 0.032569  0
-0.0354663 0.032169  0
-0.0427488 0.0312094  0
-0.0502677 0.0294265  0
-0.0578758 0.0264923  0
-0.0653209 0.0220366  0
-0.0722161 0.0157061  0
-0.0780083 0.00715662  0
-0.0819601 -0.00384196  0
-0.083153 -0.0172881  0
-0.0806019 -0.0327994  0
-0.0734179 -0.0495307  0
-0.0610476 -0.0661293  0
-0.043522 -0.0809148  0
-0.0215791 -0.0921849  0
0.00338399 -0.0985406  0
0.0295319 -0.0992903  0
0.0548495 -0.0943772  0
0.0774312 -0.0845328  0
0.0958012 -0.0711012  0
0.109161 -0.0558309  0
0.117473 -0.0404867  0
0.121338 -0.026507  0
0.121735 -0.01481  0
0.119758 -0.00576709  0
0.116399 0.000708749  0
0.112412 0.00495922  0
0.108268 0.00744932  0
0.104204 0.00857781  0
0.100325 0.00862735  0
0.0966888 0.00791663  0
0.0932693 0.00778461  0
0.0894505 0.0147637  0
0.0823112 0.0518013  0
0.0638816 0.15904  0
0.0252207 0.305026  0
-0.00298554 0.0381851  0
-0.00899092 0.0383959  0
-0.0151622 0.0387175  0
-0.02165 0.0391179  0
-0.0285584 0.0394284  0
-0.0359914 0.0394653  0
-0.0440059 0.0389511  0
-0.0525854 0.0375323  0
-0.0616518 0.0347895  0
-0.0709891 0.030241  0
-0.0802088 0.0233483  0
-0.0887045 0.0135375  0
-0.0955536 0.000320678  0
-0.0994998 -0.0165461  0
-0.0990414 -0.0367883  0
-0.0926772 -0.0593452  0
-0.0793207 -0.0823035  0
-0.0587596 -0.103091  0
-0.0319024 -0.118958  0
-0.000723415 -0.12788  0
0.0320754 -0.128847  0
0.06359 -0.121736  0
0.0911348 -0.107538  0
0.112612 -0.088273  0
0.126964 -0.0667173  0
0.134355 -0.0456267  0
0.13592 -0.0270955  0
0.133304 -0.0122918  0
0.12822 -0.00148668  0
0.122087 0.0056779  0
0.115863 0.00996197  0
0.110034 0.0121873  0
0.104687 0.0130126  0
0.09974 0.0127819  0
0.0951782 0.0117222  0
0.091084 0.01125  0
0.0870569 0.0189003  0
0.0802911 0.0613267  0
0.062633 0.18536  0
0.0248162 0.354942  0
-0.00285293 0.0438624  0
-0.00863433 0.0441997  0
-0.014645 0.044831  0
-0.0210776 0.0456686  0
-0.0281249 0.0465748  0
-0.0359437 0.0473189  0
-0.0446818 0.0475916  0
-0.054429 0.0469613  0
-0.0651673 0.0448978  0
-0.0767629 0.0407961  0
-0.0889187 0.0339128  0
-0.101034 0.0233479  0
-0.11204 0.00813784  0
-0.120259 -0.012446  0
-0.123401 -0.0384671  0
-0.118933 -0.0687643  0
-0.104794 -0.100642  0
-0.0801799 -0.129942  0
-0.0463915 -0.152564  0
-0.00650543 -0.165371  0
0.035703 -0.166668  0
0.0761686 -0.156297  0
0.110899 -0.135638  0
0.136624 -0.107703  0
0.151807 -0.0770941  0
0.157095 -0.0481684  0
0.154674 -0.0239314  0
0.147345 -0.0057343  0
0.13773 0.00643702  0
0.127851 0.0135366  0
0.118927 0.017014  0
0.111324 0.0183252  0
0.104779 0.0185267  0
0.0987689 0.0179835  0
0.0930901 0.0165194  0
0.0880706 0.0153258  0
0.083784 0.0228999  0
0.0776912 0.0699492  0
0.0612162 0.210633  0
0.0244125 0.404051  0
-0.00264934 0.0492033  0
-0.00802422 0.0497218  0
-0.0136943 0.0507377  0
-0.0199063 0.0521626  0
-0.026908 0.0538757  0
-0.0349743 0.055654  0
-0.044363 0.0571364  0
-0.0552794 0.0578182  0
-0.0678167 0.0570555  0
-0.0819717 0.0541474  0
-0.097654 0.0481733  0
-0.114478 0.0377909  0
-0.131351 0.0213204  0
-0.146103 -0.00291916  0
-0.155352 -0.0358641  0
-0.15485 -0.0765906  0
-0.140504 -0.121169  0
-0.110702 -0.163615  0
-0.0673616 -0.196308  0
-0.0148351 -0.214516  0
0.0411935 -0.216173  0
0.0946904 -0.201084  0
0.139781 -0.170924  0
0.171183 -0.129748  0
0.186513 -0.0857685  0
0.187529 -0.046032  0
0.178364 -0.0147291  0
0.163685 0.0068372  0
0.14751 0.0194172  0
0.132691 0.0250122  0
0.120689 0.0262308  0
0.111597 0.0255674  0
0.104386 0.024804  0
0.0975195 0.0243456  0
0.0902914 0.0228245  0
0.0835167 0.0205782  0
0.0782339 0.0269814  0
0.0727145 0.0772417  0
0.0581768 0.234116  0
0.0234833 0.451828  0
-0.00233542 0.054024  0
-0.00710136 0.0547677  0
-0.0122044 0.0562266  0
-0.0179389 0.0583756  0
-0.0246321 0.0611203  0
-0.0326811 0.0642789  0
-0.0425158 0.067488  0
-0.0545074 0.0701252  0
-0.0688335 0.0713736  0
-0.08564 0.0705693  0
-0.105272 0.0668289  0
-0.127884 0.0583176  0
-0.152748 0.0422726  0
-0.177425 0.0153068  0
-0.197047 -0.0254607  0
-0.204244 -0.0801049  0
-0.191873 -0.144252  0
-0.155436 -0.207271  0
-0.0974529 -0.254488  0
-0.0264184 -0.280239  0
0.0493622 -0.282488  0
0.121808 -0.260906  0
0.18254 -0.217142  0
0.221946 -0.154587  0
0.235618 -0.0901874  0
0.228195 -0.0354494  0
0.207603 0.0042196  0
0.18157 0.0283699  0
0.156011 0.0393796  0
0.134807 0.0408377  0
0.119677 0.0373001  0
0.110165 0.0328687  0
0.103899 0.0307453  0
0.0969382 0.0319958  0
0.0872304 0.0318783  0
0.0767239 0.0285728  0
0.068208 0.0325498  0
0.0619293 0.0832359  0
0.0505185 0.253834  0
0.0209463 0.49614  0
-0.00190592 0.0581181  0
-0.00582104 0.0590892  0
-0.0100835 0.0610367  0
-0.0150075 0.0639886  0
-0.0209975 0.0679542  0
-0.028598 0.0728592  0
-0.0385065 0.0784101  0
-0.05138 0.083833  0
-0.0673572 0.0877502  0
-0.0865019 0.0899127  0
-0.109891 0.0902538  0
-0.139018 0.086386  0
-0.174346 0.0741577  0
-0.213846 0.0473557  0
-0.250796 -0.00081376  0
-0.273772 -0.074531  0
-0.267836 -0.168703  0
-0.22105 -0.266556  0
-0.140524 -0.333901  0
-0.0427999 -0.369744  0
0.061183 -0.372992  0
0.161203 -0.343115  0
0.246955 -0.281639  0
0.298595 -0.181351  0
0.306098 -0.0848294  0
0.282255 -0.00977795  0
0.242505 0.0386564  0
0.199223 0.0630149  0
0.160453 0.068832  0
0.131234 0.0615768  0
0.113563 0.0491308  0
0.106209 0.0376702  0
0.105071 0.0331168  0
0.100094 0.0413302  0
0.0854196 0.0466959  0
0.0668237 0.0426254  0
0.0499775 0.0436262  0
0.0386904 0.0894938  0
0.0325195 0.264926  0
0.0149688 0.531938  0
-0.0013628 0.061253  0
-0.00417697 0.0624331  0
-0.00729373 0.0648421  0
-0.0110049 0.0685904  0
-0.0157402 0.0738475  0
-0.0221997 0.0807966  0
-0.0315114 0.0894621  0
-0.0451343 0.0990573  0
-0.0627252 0.10587  0
-0.0831228 0.111091  0
-0.108821 0.117926  0
-0.144074 0.122859  0
-0.19201 0.120709  0
-0.252878 0.101153  0
-0.319777 0.049278  0
-0.372954 -0.049026  0
-0.381692 -0.19187  0
-0.316135 -0.355778  0
-0.19717 -0.444416  0
-0.0635786 -0.490811  0
0.0758251 -0.495506  0
0.212882 -0.457894  0
0.341156 -0.381131  0
0.41556 -0.208141  0
0.408363 -0.0585759  0
0.353354 0.0425957  0
0.281937 0.0972204  0
0.213312 0.116126  0
0.156405 0.111167  0
0.117435 0.0872008  0
0.0988785 0.0595056  0
0.0984428 0.0348559  0
0.11288 0.0224029  0
0.113155 0.0565189  0
0.0835247 0.075583  0
0.0478421 0.0677861  0
0.0144363 0.0684884  0
-0.0108216 0.100945  0
-0.0062159 0.254809  0
0.00318394 0.549976  0
-0.000730295 0.0632222  0
-0.00224513 0.0645583  0
-0.00394859 0.0673142  0
-0.00603694 0.0716947  0
-0.00884428 0.0780635  0
-0.0130624 0.0870336  0
-0.020366 0.0996206  0
-0.0352013 0.117137  0
-0.0559142 0.125861  0
-0.0757322 0.131083  0
-0.100356 0.148023  0
-0.139668 0.167095  0
-0.201023 0.185617  0
-0.291846 0.187931  0
-0.408141 0.14525  0
-0.514645 0.0142951  0
-0.54283 -0.218359  0
-0.433558 -0.504402  0
-0.253933 -0.594588  0
-0.0835694 -0.644825  0
0.0867386 -0.651458  0
0.261921 -0.614416  0
0.453238 -0.544429  0
0.575444 -0.241691  0
0.552295 0.0050807  0
0.445486 0.140526  0
0.323946 0.192017  0
0.220336 0.193336  0
0.138619 0.172354  0
0.0875802 0.115796  0
0.0714271 0.0653922  0
0.0828867 0.0177186  0
0.135123 -0.0273598  0
0.128778 0.112183  0
0.0483176 0.129839  0
-0.00493877 0.10224  0
-0.0515483 0.113821  0
-0.0962578 0.125352  0
-0.0726199 0.201929  0
-0.0162194 0.536825  0
-0.000169435 0.0640627  0
-0.000520586 0.0654703  0
-0.000911955 0.0683875  0
-0.00138096 0.0730687  0
-0.00198524 0.0799915  0
-0.00283831 0.0900667  0
-0.00478132 0.105726  0
-0.0284429 0.149418  0
-0.0708513 0.15653  0
-0.0973848 0.146539  0
-0.121821 0.181401  0
-0.165994 0.216994  0
-0.238943 0.269902  0
-0.360678 0.315905  0
-0.539647 0.312171  0
-0.704813 0.11885  0
-0.708446 -0.291301  0
-0.519108 -0.73032  0
-0.286083 -0.781573  0
-0.0954522 -0.81905  0
0.0845546 -0.827775  0
0.27915 -0.808112  0
0.511117 -0.774246  0
0.708688 -0.331877  0
0.723149 0.103726  0
0.569205 0.302404  0
0.385983 0.334672  0
0.24563 0.294418  0
0.122076 0.276373  0
0.0446824 0.140096  0
0.0364337 0.0653808  0
0.0454028 -0.00281176  0
0.0529411 -0.0667168  0
0.0205244 0.161213  0
-0.0118923 0.164595  0
-0.0311265 0.139861  0
-0.0768501 0.16842  0
-0.157597 0.196096  0
-0.133302 0.0830808  0
-0.0273746 0.493117  0
-0.000879384 0.032116  0
-0.00270312 0.032826  0
-0.00474999 0.0342986  0
-0.00725061 0.036664  0
-0.0106086 0.0401682  0
-0.0162505 0.0452874  0
-0.0453163 0.0535804  0
-0.342118 0.17415  0
-0.613536 0.176655  0
-0.622908 0.162206  0
-0.646515 0.213666  0
-0.676086 0.258377  0
-0.721608 0.3469  0
-0.785029 0.423822  0
-0.86189 0.459855  0
-0.878186 0.152431  0
-0.72638 -0.473316  0
-0.492005 -0.972231  0
-0.282009 -0.982916  0
-0.0989306 -0.991653  0
0.06665 -1.00099  0
0.242078 -1.00515  0
0.409806 -0.977132  0
0.62722 -0.544207  0
0.818859 0.109729  0
0.840968 0.428009  0
0.772208 0.460878  0
0.730459 0.350201  0
0.489567 0.347144  0
0.184751 0.0748877  0
0.116496 0.031975  0
0.110736 -0.00517503  0
0.0811245 -0.0333584  0
0.0205244 0.0822975  0
-0.00914236 0.0822975  0
-0.0462836 0.0795476  0
-0.122479 0.0974546  0
-0.176562 0.0956777  0
-0.118146 -0.0717241  0
-0.0209754 0.444652  0
0 0  0
0 0  0
0 0  0
0 0  0
0 0  0
0 0  0
0 0  0
-0.306768 0.0883275  0
-0.610997 0.0883275  0
-0.648531 0.0857886  0
-0.697582 0.113951  0
-0.750679 0.136855  0
-0.609814 0.417048  0
-0.424832 0.457008  0
-0.423101 0.501698  0
-0.397048 0.100724  0
-0.383288 -0.587293  0
-0.35413 -1.12196  0
-0.238284 -1.15925  0
-0.0963227 -1.14059  0
0.0311191 -1.1453  0
0.137273 -1.14259  0
0.134065 -1.00433  0
0.0901601 -0.690634  0
0.130468 0.0240966  0
0.166923 0.454963  0
0.524904 0.478795  0
0.806672 0.1751  0
0.36523 0.1751  0
0 0  0
0 0  0
0 0  0
0 0  0
0 0  0
0 0  0
0 0  0
0 0  0
-0.0527096 -0.103458  0
-0.105419 -0.147919  0
-0.0527096 0.370852  0
0 0  0
0 0  0
0 0  0
0 0  0
0 0  0
0 0  0
0 0  0
0 0  0
0 0  0
0 0  0
0 0  0
0 0  0
-0.212416 0.228504  0
-0.446312 0.228504  0
-0.232798 0.249984  0
0.141301 0.0382006  0
0.0334441 -0.869235  0
-0.213518 -1.16174  0
-0.176909 -1.27204  0
-0.100505 -1.24628  0
-0.060709 -1.20696  0
-0.0547285 -1.19705  0
-0.112262 -0.478286  0
-0.381946 -0.347243  0
-0.444257 -0.00617944  0
-0.0667381 0.227482  0
0.0834615 0.227482  0
0 0  0
0 0  0
0 0  0
0 0  0
0 0  0
0 0  0
0 0  0
0 0  0
0 0  0
0 0  0
-0.0527096 -0.0739596  0
-0.0527096 0.0850828  0
0 0.318085  0
0 0  0
0 0  0
0 0  0
0 0  0
0 0  0
0 0  0
0 0  0
0 0  0
0 0  0
0 0  0
0 0  0
0 0  0
0 0  0
0 0  0
0 0  0
0 0  0
-0.106759 -0.58087  0
-0.140065 -0.58087  0
-0.114739 -0.654323  0
-0.151347 -0.64304  0
-0.100269 -0.60348  0
-0.0303545 -0.60348  0
0 0  0
0 0  0
0 0  0
0 0  0
0 0  0
0 0  0
0 0  0
0 0  0
0 0  0
0 0  0
0 0  0
0 0  0
0 0  0
0 0  0
0 0  0
0 0  0
0 0.159042  0
0 0.159042  0
0 0  0
0 0  0
0 0  0
0 0  0
0 0  0
0 0  0
0 0  0
0 0  0
0 0  0
0 0  0
0 0  0
0 0  0
0 0  0
0 0  0
0 0  0
0 0  0
0 0  0
0 0  0
0 0  0
0 0  0
0 0  0
0 0  0
0 0  0
0 0  0
0 0  0
0 0  0
0 0  0
0 0  0
0 0  0
0 0  0
0 0  0
0 0  0
0 0  0
0 0  0
0 0  0
0 0  0
0 0  0
0 0  0
0 0  0
0 0  0
0 0  0
0 0  0
0 0  0
0 0  0
0 0  0
0 0  0
0 0  0
0 0  0
0 0  0
0 0  0
0 0  0
0 0  0
0 0  0
0 0  0
0 0  0
0 0  0
0 0  0
0 0  0
0 0  0
0 0  0
0 0  0
0 0  0
0 0  0
0 0  0
0 0  0
0 0  0
0 0  0
0 0  0
0 0  0
0 0  0
0 0  0
0 0  0
0 0  0
0 0  0
0 0  0
0 0  0
0 0  0
0 0  0
0 0  0
0 0  0
0 0  0
0 0  0
0 0  0
0 0  0
0 0  0
0 0  0
0 0  0
0 0  0
0 0  0
0 0  0
0 0  0
0 0  0
0 0  0
0 0  0
0 0  0
0 0  0
0 0  0
0 0  0
0 0  0
0 0  0
0 0  0
0 0  0
0 0  0
0 0  0
0 0  0
0 0  0
0 0  0
0 0  0
0 0  0
0 0  0
0 0  0
0 0  0
0 0  0
0 0  0
0 0  0
0 0  0
0 0  0
0 0  0
0 0  0
0 0  0
0 0  0
0 0  0
0 0  0
0 0  0
0 0  0
0 0  0
0 0  0
0 0  0
0 0  0
0 0  0
0 0  0
0 0  0
0 0  0
0 0  0
0 0  0
0 0  0
0 0  0
0 0  0
0 0  0
0 0  0
0 0  0
0 0  0
0 0  0
0 0  0
0 0  0
0 0  0
0 0  0
0 0  0
0 0  0
0 0  0
0 0  0
0 0  0
0 0  0
0 0  0
0 0  0
0 0  0
0 0  0
0 0  0
0 0  0
0 0  0
0 0  0
0 0  0
0 0  0
0 0  0
0 0  0
0 0  0
0 0  0
0 0  0
0 0  0
0 0  0
0 0  0
0 0  0
0 0  0
0 0  0
0 0  0
0 0  0
0 0  0
0 0  0
0 0  0
0 0  0
0 0  0
0 0  0
0 0  0
0 0  0
0 0  0
0 0  0
0 0  0
0 0  0
0 0  0
0 0  0
0 0  0
0 0  0
0 0  0
0 0  0
0 0  0
0 0  0
0 0  0
0 0  0
0 0  0
0 0  0
0 0  0
0 0  0
0 0  0
0 0  0
0 0  0
0 0  0
0 0  0
0 0  0
0 0  0
0 0  0
0 0  0
0 0  0
0 0  0
0 0  0
0 0  0
0 0  0
0 0  0
0 0  0
0 0  0
0 0  0
0 0  0
0 0  0
0 0  0
0 0  0
0 0  0
0 0  0
0 0  0
0 0  0
0 0  0
0 0  0
0 0  0
0 0  0
0 0  0
0 0  0
0 0  0
0 0  0
0 0  0
0 0  0
0 0  0
0 0  0
0 0  0
0 0  0
0 0  0
0 0  0
0 0  0
0 0  0
0 0  0
0 0  0
0 0  0
0 0  0
0 0  0
0 0  0
0 0  0
0 0  0
0 0  0
0 0  0
0 0  0
0 0  0
0 0  0
0 0  0
0 0  0
0 0  0
0 0  0
0 0  0
0 0  0
0 0  0
0 0  0
0 0  0
0 0  0
0 0  0
0 0  0
0 0  0
0 0  0
0 0  0
0 0  0
0 0  0
0 0  0
0 0  0
0 0  0
0 0  0
0 0  0
0 0  0
0 0  0
0 0  0
0 0  0
0 0  0
0 0  0
0 0  0
0 0  0
0 0  0
0 0  0
0 0  0
0 0  0
0 0  0
0 0  0
0 0  0
0 0  0
0 0  0
0 0  0
0 0  0
0 0  0
0 0  0
0 0  0
0 0  0
0 0  0
0 0  0
0 0  0
0 0  0
0 0  0
0 0  0
0 0  0
0 0  0
0 0  0
0 0  0
0 0  0
0 0  0
0 0  0
0 0  0
0 0  0
0 0  0
0 0  0
0 0  0
0 0  0
0 0  0
0 0  0
0 0  0
0 0  0
0 0  0
0 0  0
0 0  0
0 0  0
0 0  0
0 0  0
0 0  0
0 0  0
0 0  0
0 0  0
0 0  0
0 0  0
0 0  0
0 0  0
0 0  0
0 0  0
0 0  0
0 0  0
0 0  0
0 0  0
0 0  0
0 0  0
0 0  0
0 0  0
0 0  0
0 0  0
0 0  0
0 0  0
0 0  0
0 0  0
0 0  0
0 0  0
0 0  0
0 0  0
0 0  0
0 0  0
0 0  0
0 0  0
0 0  0
0 0  0
0 0  0
0 0  0
0 0  0
0 0  0
0 0  0
0 0  0
0 0  0
0 0  0
0 0  0
0 0  0
0 0  0
0 0  0
0 0  0
0 0  0
0 0  0
0 0  0
0 0  0
0 0  0
0 0  0
0 0  0
0 0  0
0 0  0
0 0  0
0 0  0
0 0  0
0 0  0
0 0  0
0 0  0
0 0  0
0 0  0
0 0  0
0 0  0
0 0  0
0 0  0
0 0  0
0 0  0
0 0  0
0 0  0
0 0  0
0 0  0
0 0  0
0 0  0
0 0  0
0 0  0
0 0  0
0 0  0
0 0  0
0 0  0
0 0  0
0 0  0
0 0  0
0 0  0
0 0  0
0 0  0
0 0  0
0 0  0
0 0  0
0 0  0
0 0  0
0 0  0
0 0  0
0 0  0
0 0  0
0 0  0
0 0  0
0 0  0
0 0  0
0 0  0
0 0  0
0 0  0
0 0  0
0 0  0
0 0  0
0 0  0
0 0  0
0 0  0
0 0  0
0 0  0
0 0  0
0 0  0
0 0  0
0 0  0
0 0  0
0 0  0
0 0  0
0 0  0
0 0  0
0 0  0
0 0  0
0 0  0
0 0  0
0 0  0
0 0  0
0 0  0
0 0  0
0 0  0
0 0  0
0 0  0
0 0  0
0 0  0
0 0  0
0 0  0
0 0  0
0 0  0
0 0  0
0 0  0
0 0  0
0 0  0
0 0  0
0 0  0
0 0  0
0 0  0
0 0  0

SCALARS pressure double 1
LOOKUP_TABLE default
3.34824
3.35182
3.35779
3.36717
3.37935
3.39406
3.4119
3.4324
3.45433
3.4773
3.50125
3.52565
3.54967
3.57138
3.5918
3.60925
3.62295
3.6326
3.63764
3.63775
3.63279
3.6229
3.60838
3.5898
3.56777
3.54316
3.51685
3.4897
3.46261
3.43637
3.4117
3.3892
3.36935
3.35259
3.33914
3.3291
3.32259
3.31969
3.32029
3.323
3.1407
3.14351
3.15024
3.15951
3.17182
3.18793
3.2063
3.22633
3.24861
3.27269
3.29755
3.32257
3.34609
3.36981
3.39044
3.40843
3.42283
3.43279
3.43799
3.43819
3.43312
3.42288
3.4079
3.38865
3.36591
3.34048
3.31332
3.28536
3.25749
3.23055
3.20528
3.18229
3.1622
3.1452
3.13153
3.1214
3.11487
3.11193
3.1125
3.11523
2.92431
2.928
2.93439
2.94404
2.95803
2.97402
2.99241
3.0138
3.03738
3.06242
3.08859
3.11417
3.14059
3.16468
3.18717
3.20638
3.22184
3.23274
3.23836
3.23856
3.23325
3.22245
3.20645
3.18594
3.16167
3.13459
3.1057
3.07603
3.04659
3.01824
2.99177
2.96798
2.94708
2.92956
2.91566
2.9054
2.89877
2.89575
2.8962
2.89874
2.70031
2.70375
2.71061
2.72199
2.73522
2.75199
2.77203
2.79448
2.81942
2.84648
2.87389
2.90255
2.9303
2.95738
2.98172
3.00319
3.02033
3.0324
3.03884
3.03924
3.03353
3.02173
3.00426
2.98176
2.95515
2.92549
2.89392
2.86164
2.82973
2.79921
2.77109
2.74568
2.72379
2.70564
2.69134
2.68094
2.6743
2.67127
2.67163
2.674
2.46793
2.47147
2.47981
2.49016
2.50476
2.52259
2.54366
2.56803
2.59506
2.62371
2.65431
2.6857
2.71692
2.74684
2.77457
2.79834
2.81748
2.83087
2.83785
2.83824
2.83196
2.81892
2.79951
2.77441
2.74464
2.71145
2.67624
2.64039
2.60524
2.57206
2.54142
2.51441
2.49131
2.47247
2.45798
2.44766
2.44125
2.43846
2.43894
2.44129
2.22705
2.23179
2.23917
2.25078
2.26579
2.28488
2.30764
2.33381
2.36303
2.39486
2.42907
2.4641
2.49908
2.53228
2.56265
2.58954
2.61187
2.62853
2.63823
2.64011
2.63385
2.61907
2.59632
2.56686
2.53221
2.49405
2.454
2.41364
2.37452
2.33761
2.30416
2.27477
2.25013
2.23046
2.21577
2.20574
2.19985
2.19758
2.19845
2.20092
1.97834
1.98253
1.99046
2.00233
2.01838
2.03841
2.06288
2.09146
2.12351
2.15928
2.19739
2.23545
2.27297
2.31089
2.34817
2.38243
2.41078
2.43101
2.44207
2.44254
2.43318
2.41495
2.38903
2.35614
2.31727
2.2739
2.22799
2.18171
2.13689
2.09518
2.05777
2.02552
1.99897
1.97852
1.96403
1.95483
1.95002
1.94877
1.95027
1.95306
1.72075
1.7247
1.73288
1.74501
1.76147
1.78285
1.8091
1.8401
1.87593
1.91573
1.95452
1.99665
2.04325
2.09086
2.13567
2.17524
2.20804
2.23229
2.24318
2.24257
2.2335
2.2151
2.18631
2.14782
2.10156
2.05011
1.99615
1.94226
1.89066
1.8433
1.80132
1.76561
1.73687
1.71569
1.70206
1.69465
1.69179
1.69179
1.69447
1.69817
1.45419
1.45827
1.46613
1.47821
1.49509
1.51726
1.54516
1.57916
1.619
1.65735
1.70474
1.75705
1.81001
1.86364
1.91718
1.96674
2.00793
2.03125
2.04438
2.04724
2.03831
2.01656
1.98308
1.93826
1.88382
1.82273
1.75861
1.69494
1.63494
1.58069
1.53343
1.49367
1.46219
1.44035
1.42891
1.42498
1.42467
1.42763
1.43261
1.43772
1.17904
1.18283
1.19016
1.2018
1.21831
1.24068
1.27004
1.30717
1.34569
1.39662
1.44898
1.50492
1.56681
1.63195
1.69684
1.75713
1.79903
1.83467
1.85277
1.85322
1.84134
1.81808
1.78075
1.72826
1.66331
1.59013
1.51351
1.43827
1.36797
1.30591
1.25288
1.20837
1.17282
1.14956
1.14318
1.14496
1.15117
1.15786
1.16599
1.17384
0.895498
0.898638
0.905097
0.915381
0.930518
0.951968
0.981816
1.01842
1.06992
1.12279
1.18103
1.24418
1.31369
1.39043
1.46964
1.53631
1.59975
1.63906
1.65558
1.65439
1.64096
1.61527
1.57519
1.51481
1.43778
1.35008
1.25905
1.16955
1.08652
1.01652
0.958594
0.909051
0.86618
0.836842
0.842599
0.85771
0.871532
0.884278
0.898935
0.911734
0.603926
0.606261
0.611132
0.619072
0.631206
0.649541
0.676129
0.718602
0.780718
0.841737
0.90154
0.967686
1.04554
1.13637
1.22565
1.31602
1.38835
1.43526
1.44761
1.44107
1.42375
1.39677
1.35635
1.28786
1.19911
1.09789
0.991657
0.885244
0.784563
0.708664
0.65029
0.597846
0.540883
0.482969
0.528466
0.564786
0.589276
0.609766
0.639342
0.661094
0.305103
0.30638
0.309024
0.313456
0.320503
0.331761
0.351492
0.393271
0.487553
0.55356
0.609944
0.671305
0.751962
0.858007
0.968021
1.06463
1.14517
1.19863
1.20901
1.19771
1.17374
1.14072
1.09515
1.01809
0.925813
0.824286
0.705422
0.581753
0.44753
0.37537
0.329588
0.285328
0.208169
0.0185496
0.21566
0.276633
0.305372
0.334641
0.398019
0.43561
8.04766e-05
8.62553e-05
9.93719e-05
0.000122594
0.000162163
0.000233825
0.000515346
0.00807311
0.2174
0.269469
0.305825
0.346561
0.41352
0.54796
0.668686
0.745951
0.815734
0.888066
0.919327
0.910059
0.875716
0.821978
0.748528
0.653566
0.581552
0.510328
0.388541
0.266899
0.0313144
0.00418538
-0.00079094
-0.00367134
-0.0175885
0
0.0269086
0.00930291
0.0129131
0.0263728
0.186912
0.248387
0
0
0
0
0
0
0
0
0.0921641
0.00334708
0.00736038
0.00759831
0.0126601
0.220057
0.295251
0.306498
0.365494
0.500825
0.583039
0.586001
0.535875
0.434635
0.345429
0.206751
0.140554
0.139894
0.0186422
0.0503606
0
0
0
0
0
0
0
0
0
0
0.0372508
0.113102
0
0
0
0
0
0
0
0
0
0
0
0
0
0.011117
-0.000333036
-0.00847543
0.00413431
0.134503
0.249994
0.261836
0.197624
-0.027378
0.0259639
-0.00240918
-0.0127017
-0.0344658
0
0
0
0
0
0
0
0
0
0
0
0
-0.0126763
0.0483198
0
0
0
0
0
0
0
0
0
0
0
0
0
0
0
0
0
-0.158603
-0.0189729
-0.0213169
-0.00524453
0
0
0
0
0
0
0
0
0
0
0
0
0
0
0
0
0
0
0.0337735
0
0
0
0
0
0
0
0
0
0
0
0
0
0
0
0
0
0
0
0
0
0
0
0
0
0
0
0
0
0
0
0
0
0
0
0
0
0
0
0
0
0
0
0
0
0
0
0
0
0
0
0
0
0
0
0
0
0
0
0
0
0
0
0
0
0
0
0
0
0
0
0
0
0
0
0
0
0
0
0
0
0
0
0
0
0
0
0
0
0
0
0
0
0
0
0
0
0
0
0
0
0
0
0
0
0
0
0
0
0
0
0
0
0
0
0
0
0
0
0
0
0
0
0
0
0
0
0
0
0
0
0
0
0
0
0
0
0
0
0
0
0
0
0
0
0
0
0
0
0
0
0
0
0
0
0
0
0
0
0
0
0
0
0
0
0
0
0
0
0
0
0
0
0
0
0
0
0
0
0
0
0
0
0
0
0
0
0
0
0
0
0
0
0
0
0
0
0
0
0
0
0
0
0
0
0
0
0
0
0
0
0
0
0
0
0
0
0
0
0
0
0
0
0
0
0
0
0
0
0
0
0
0
0
0
0
0
0
0
0
0
0
0
0
0
0
0
0
0
0
0
0
0
0
0
0
0
0
0
0
0
0
0
0
0
0
0
0
0
0
0
0
0
0
0
0
0
0
0
0
0
0
0
0
0
0
0
0
0
0
0
0
0
0
0
0
0
0
0
0
0
0
0
0
0
0
0
0
0
0
0
0
0
0
0
0
0
0
0
0
0
0
0
0
0
0
0
0
0
0
0
0
0
0
0
0
0
0
0
0
0
0
0
0
0
0
0
0
0
0
0
0
0
0
0
0
0
0
0
0
0
0
0
0
0
0
0
0
0
0
0
0
0
0
0
0
0
0
0
0
0
0
0
0
0
0
0
0
0
0
0
0
0
0
0
0
0
0
0
0
0
0
0
0
0
0
0
0
0
0
0
0
0
0
0
0
0
0
0
0
0
0
0
0
0
0
0
0
0
0
0
0
0
0
0
0
0
0
0
0
0
0
0
0
0
0
0
0
0
0
0
0
0
0
0
0
0
0
0
0
0
0
0
0
0
0
0
0
0
0
0
0
0
0
0
0
0
0
0
0
0
0
0
0
0
0
0
0
0
0
0
0
0
0
0
0
0
0
0
0
0
0
0
0
0
0
0
0
0
0
0
0
0
0
0
0
0
0
0
0
SCALARS rhs double 1
LOOKUP_TABLE default
-5.14877
-5.16605
-5.1377
-5.14938
-5.15557
-5.14929
-5.15188
-5.15496
-5.15182
-5.14962
-5.15067
-5.14926
-5.18323
-5.13275
-5.15984
-5.16437
-5.15476
-5.15862
-5.16023
-5.15929
-5.15696
-5.15592
-5.15289
-5.14824
-5.14399
-5.14031
-5.13718
-5.13386
-5.13123
-5.12917
-5.12746
-5.12593
-5.12459
-5.12335
-5.12241
-5.12164
-5.12123
-5.12495
-5.15957
-5.27964
-0.167038
-0.106273
-0.143724
-0.131222
-0.130828
-0.138036
-0.131781
-0.129046
-0.132935
-0.133028
-0.128506
-0.165742
-0.0876237
-0.165726
-0.126733
-0.130278
-0.145444
-0.140176
-0.136523
-0.142251
-0.142603
-0.139441
-0.137692
-0.13627
-0.133499
-0.130655
-0.128327
-0.127503
-0.126485
-0.125645
-0.125157
-0.12497
-0.12511
-0.125414
-0.125697
-0.125881
-0.125734
-0.128873
-0.165187
-0.292826
-0.133954
-0.148637
-0.128505
-0.136771
-0.132504
-0.131296
-0.13424
-0.132084
-0.13081
-0.131146
-0.164277
-0.0913571
-0.167092
-0.116476
-0.145553
-0.140075
-0.137923
-0.144612
-0.143156
-0.141522
-0.143782
-0.142358
-0.138851
-0.13554
-0.132907
-0.130051
-0.127487
-0.125475
-0.124797
-0.124594
-0.124458
-0.124973
-0.125464
-0.125504
-0.124813
-0.123937
-0.122874
-0.124675
-0.157835
-0.274211
-0.150175
-0.126367
-0.139611
-0.128877
-0.133136
-0.133139
-0.131372
-0.133286
-0.132456
-0.156277
-0.107436
-0.156168
-0.118662
-0.151764
-0.13665
-0.155859
-0.169687
-0.181185
-0.193105
-0.201862
-0.204676
-0.20066
-0.19256
-0.181028
-0.168742
-0.157858
-0.149493
-0.143344
-0.138603
-0.134954
-0.133907
-0.131665
-0.128345
-0.125843
-0.12487
-0.124742
-0.12425
-0.125762
-0.155616
-0.262228
-0.149802
-0.13199
-0.129592
-0.134278
-0.130019
-0.132411
-0.13414
-0.132635
-0.148646
-0.12428
-0.133709
-0.132841
-0.152174
-0.178231
-0.218039
-0.22344
-0.21536
-0.184134
-0.139668
-0.10059
-0.0794385
-0.0672061
-0.0660671
-0.073675
-0.0861441
-0.101115
-0.113106
-0.119898
-0.12286
-0.128464
-0.125434
-0.123534
-0.124498
-0.125625
-0.126115
-0.12587
-0.125096
-0.126043
-0.153758
-0.253745
-0.144402
-0.13366
-0.131323
-0.132669
-0.131313
-0.132398
-0.134361
-0.139962
-0.131722
-0.120764
-0.149156
-0.192254
-0.262147
-0.238181
-0.155523
-0.0734358
-0.0360765
-0.0604492
-0.114246
-0.162117
-0.207516
-0.2223
-0.217762
-0.204232
-0.187749
-0.164385
-0.142443
-0.12955
-0.131565
-0.11857
-0.121217
-0.123907
-0.12377
-0.124482
-0.124957
-0.125495
-0.124832
-0.124183
-0.154882
-0.252675
-0.145774
-0.127666
-0.134535
-0.127662
-0.135708
-0.13128
-0.129409
-0.137958
-0.127216
-0.151076
-0.287376
-0.271126
-0.0779604
0.0191657
-0.0326056
-0.161598
-0.254837
-0.268111
-0.230618
-0.168908
-0.149536
-0.139138
-0.14943
-0.156996
-0.148138
-0.144213
-0.144851
-0.149872
-0.125136
-0.132983
-0.127086
-0.124757
-0.126326
-0.124907
-0.125565
-0.125349
-0.122411
-0.137254
-0.160711
-0.247749
-0.143085
-0.131229
-0.124299
-0.139353
-0.12301
-0.127874
-0.142505
-0.133028
-0.139311
-0.401607
-0.092716
0.10018
-0.0668954
-0.266183
-0.290229
-0.209536
-0.15032
-0.154588
-0.197138
-0.224489
-0.250677
-0.262866
-0.231532
-0.189159
-0.173747
-0.161656
-0.155828
-0.129484
-0.141762
-0.129803
-0.131611
-0.129903
-0.125504
-0.128097
-0.12652
-0.125687
-0.152203
-0.113868
-0.128236
-0.233686
-0.141052
-0.125107
-0.136476
-0.117947
-0.133644
-0.136669
-0.131923
-0.134595
-0.4538
0.173604
-0.0198735
-0.314674
-0.241135
-0.115277
-0.149555
-0.239017
-0.292829
-0.304848
-0.297384
-0.247054
-0.303667
-0.285724
-0.276612
-0.269325
-0.235987
-0.206804
-0.16887
-0.150543
-0.136299
-0.134469
-0.128648
-0.1269
-0.129479
-0.125779
-0.12919
-0.166882
-0.0807462
-0.0920564
-0.116828
-0.214994
-0.135626
-0.130896
-0.120666
-0.132584
-0.128126
-0.133582
-0.134752
-0.392315
0.260288
-0.292936
-0.232633
-0.0619792
-0.171157
-0.257187
-0.289378
-0.306504
-0.369497
-0.441636
-0.45499
-0.460914
-0.41137
-0.449712
-0.44852
-0.39581
-0.339401
-0.276009
-0.19856
-0.180264
-0.154779
-0.14109
-0.131835
-0.127459
-0.124479
-0.129184
-0.163815
-0.0746559
-0.140328
-0.0597156
-0.018994
-0.152469
-0.133844
-0.124329
-0.125757
-0.12683
-0.131774
-0.131203
-0.273476
0.105541
-0.303587
-0.0547906
-0.160204
-0.243906
-0.194586
-0.253872
-0.37025
-0.583205
-0.709749
-0.772794
-0.769835
-0.632881
-0.704125
-0.760837
-0.843206
-0.749038
-0.592841
-0.383198
-0.289242
-0.225631
-0.188924
-0.157987
-0.141136
-0.130409
-0.128281
-0.149381
-0.107722
-0.171915
-0.0937059
0.0244127
0.139859
-0.0337883
-0.129818
-0.122885
-0.126143
-0.126278
-0.128707
-0.177581
-0.0726579
-0.144209
-0.130664
-0.20758
-0.148062
-0.202316
-0.314761
-0.42945
-0.620922
-1.09353
-1.47983
-1.64831
-1.23256
-1.04169
-1.0633
-1.27158
-1.76455
-1.58355
-1.17822