# vtk DataFile Version 4.0
Nusif Fluid VTK output
ASCII
DATASET STRUCTURED_POINTS
DIMENSIONS 40 30 1
ORIGIN 0 0 0 
SPACING 0.2 0.2 1
POINT_DATA 1200 

VECTORS velocity double
0.00863099 -0.00887044  0
0.0257224 -0.00863999  0
0.0421938 -0.00818933  0
0.0575623 -0.00753466  0
0.0714414 -0.00669792  0
0.0834923 -0.00570501  0
0.0934318 -0.00458506  0
0.101037 -0.00336907  0
0.106148 -0.00209065  0
0.108677 -0.000785345  0
0.108606 0.000509572  0
0.105996 0.00175487  0
0.100984 0.0029116  0
0.093782 0.00394405  0
0.0846693 0.00482271  0
0.0739726 0.0055278  0
0.0620618 0.00607607  0
0.0492773 0.00642253  0
0.035924 0.00660678  0
0.0223158 0.00666918  0
0.0087256 0.00660951  0
-0.00461345 0.00642326  0
-0.0174562 0.00610495  0
-0.0295173 0.00563797  0
-0.0404719 0.00500084  0
-0.0499695 0.00418188  0
-0.0576556 0.00318695  0
-0.0632013 0.00203842  0
-0.0663339 0.000772178  0
-0.0668646 -0.000564938  0
-0.0647092 -0.00191597  0
-0.059908 -0.00321313  0
-0.0526544 -0.00437038  0
-0.0433467 -0.00526882  0
-0.0326696 -0.00574114  0
-0.0216789 -0.00558374  0
-0.0117856 -0.00464491  0
-0.00446299 -0.00301366  0
-0.000598027 -0.00118778  0
0.000210707 4.23605e-05  0
0.00886126 -0.0267802  0
0.0264033 -0.0260809  0
0.0432991 -0.024714  0
0.0590539 -0.022729  0
0.0732713 -0.0201933  0
0.0856057 -0.0171864  0
0.0957686 -0.0137954  0
0.103532 -0.0101147  0
0.108733 -0.00624436  0
0.111278 -0.00229092  0
0.111147 0.00163218  0
0.108399 0.00540608  0
0.103176 0.00891182  0
0.0956981 0.0120385  0
0.086261 0.0146935  0
0.0752375 0.0168437  0
0.0629711 0.0184178  0
0.0498235 0.0194521  0
0.0361836 0.0200172  0
0.0223257 0.0201805  0
0.00847881 0.0199871  0
-0.00512662 0.0194436  0
-0.0182553 0.018512  0
-0.0306367 0.0171271  0
-0.0419414 0.0152217  0
-0.0517933 0.0127601  0
-0.0598058 0.00975625  0
-0.0656211 0.00627685  0
-0.0689443 0.00243341  0
-0.0695714 -0.00162752  0
-0.0674121 -0.00572958  0
-0.0625115 -0.00966472  0
-0.0550791 -0.0131703  0
-0.0455372 -0.0158861  0
-0.0345958 -0.0173116  0
-0.0233272 -0.0168433  0
-0.0131402 -0.0140375  0
-0.0054899 -0.00916649  0
-0.00124666 -0.00371604  0
-1.21738e-05 -4.55864e-05  0
0.00932958 -0.0453234  0
0.0277877 -0.0441296  0
0.0455454 -0.0417975  0
0.0620831 -0.0384157  0
0.0769846 -0.0341025  0
0.0898911 -0.028994  0
0.100504 -0.0232388  0
0.108589 -0.0169939  0
0.113973 -0.0104252  0
0.116555 -0.00371088  0
0.116306 0.002958  0
0.113282 0.00937807  0
0.107629 0.015342  0
0.0995872 0.0206527  0
0.0895131 0.0251718  0
0.077753 0.0287339  0
0.0647406 0.0313215  0
0.0509503 0.0330027  0
0.0367132 0.0338887  0
0.0223184 0.0341107  0
0.00798352 0.033775  0
-0.00613024 0.0329073  0
-0.0198387 0.0314235  0
-0.0328804 0.0291791  0
-0.0449032 0.0260341  0
-0.0554834 0.0219138  0
-0.0641715 0.0168374  0
-0.0705469 0.0109211  0
-0.0742639 0.00436316  0
-0.0750864 -0.00257564  0
-0.0729124 -0.00958356  0
-0.0677968 -0.0162959  0
-0.0599792 -0.0222583  0
-0.0499297 -0.0268593  0
-0.0384128 -0.029267  0
-0.0265428 -0.0284973  0
-0.0157385 -0.0238455  0
-0.00743126 -0.0157867  0
-0.0024609 -0.00677991  0
-0.000427268 -0.000720125  0
0.0100533 -0.0650509  0
0.0299257 -0.063314  0
0.0490096 -0.0599276  0
0.0667455 -0.0550311  0
0.0826895 -0.0488035  0
0.0964655 -0.0414456  0
0.107765 -0.0331694  0
0.116342 -0.0241942  0
0.122014 -0.0147502  0
0.124663 -0.0050848  0
0.124244 0.00453099  0
0.120804 0.0138007  0
0.114494 0.0224136  0
0.105608 0.0300909  0
0.0944735 0.0365297  0
0.0815753 0.0415509  0
0.0674721 0.0451384  0
0.0526308 0.0473684  0
0.037488 0.048452  0
0.0223148 0.0486544  0
0.00725325 0.0481691  0
-0.0076202 0.0470436  0
-0.0222039 0.0451208  0
-0.036268 0.0421284  0
-0.0494214 0.0378024  0
-0.0611533 0.0319983  0
-0.0709089 0.0247358  0
-0.0781673 0.0161944  0
-0.0825028 0.00668012  0
-0.0836269 -0.00340862  0
-0.0814166 -0.013598  0
-0.0759394 -0.0233384  0
-0.067482 -0.0319556  0
-0.0565909 -0.0385676  0
-0.0441213 -0.0420103  0
-0.0312652 -0.0409456  0
-0.0194769 -0.0344555  0
-0.0101709 -0.0232558  0
-0.00414886 -0.010769  0
-0.000999468 -0.00237954  0
0.0110605 -0.0865002  0
0.0328969 -0.0841426  0
0.0538104 -0.0795631  0
0.0731858 -0.0729728  0
0.0905461 -0.0646306  0
0.1055 -0.0548124  0
0.117731 -0.0437963  0
0.126985 -0.0318623  0
0.133066 -0.0192981  0
0.135833 -0.00641399  0
0.135211 0.00643781  0
0.131227 0.0188548  0
0.124056 0.030418  0
0.113952 0.0406695  0
0.101372 0.0491887  0
0.0869231 0.0557608  0
0.071242 0.06027  0
0.0549642 0.0628966  0
0.0385659 0.0640122  0
0.0223247 0.0640619  0
0.00629363 0.0634004  0
-0.00960982 0.0621334  0
-0.0254127 0.0599647  0
-0.040919 0.0564021  0
-0.0556762 0.0509849  0
-0.0690439 0.0434598  0
-0.0803122 0.0338421  0
-0.088816 0.0223938  0
-0.0940172 0.00956021  0
-0.0955519 -0.00408767  0
-0.0932637 -0.0178754  0
-0.0872339 -0.0310266  0
-0.0778141 -0.0426039  0
-0.0656631 -0.0514212  0
-0.0517753 -0.0559741  0
-0.0374713 -0.0546022  0
-0.0242792 -0.0462398  0
-0.0136141 -0.031903  0
-0.00623439 -0.0159841  0
-0.00169975 -0.00530887  0
0.0123888 -0.110275  0
0.0368046 -0.107176  0
0.0600965 -0.101195  0
0.0815781 -0.0926565  0
0.10074 -0.0819272  0
0.117184 -0.0693718  0
0.130599 -0.055339  0
0.140732 -0.0401643  0
0.147377 -0.0241782  0
0.150357 -0.00773653  0
0.149551 0.00873193  0
0.144956 0.0247087  0
0.136692 0.0395987  0
0.125073 0.0527455  0
0.110658 0.0636345  0
0.0941688 0.0718114  0
0.0764244 0.077189  0
0.058214 0.0800235  0
0.0401294 0.0809217  0
0.0224394 0.0806359  0
0.00508171 0.0797695  0
-0.0122326 0.0785333  0
-0.0297078 0.0763922  0
-0.0471797 0.0725039  0
-0.0640969 0.0661089  0
-0.0796418 0.0567984  0
-0.0929045 0.0445834  0
-0.103037 0.0298379  0
-0.109358 0.0131865  0
-0.111402 -0.004587  0
-0.10896 -0.022558  0
-0.102125 -0.0396621  0
-0.0913327 -0.054634  0
-0.0773988 -0.0659302  0
-0.0615201 -0.0716861  0
-0.0452129 -0.0699563  0
-0.0301317 -0.059614  0
-0.0177165 -0.0420641  0
-0.00867574 -0.0226986  0
-0.00251181 -0.00974785  0
0.0140741 -0.137051  0
0.0417444 -0.133026  0
0.0679957 -0.125342  0
0.0920545 -0.114503  0
0.113391 -0.101031  0
0.131626 -0.0853977  0
0.146472 -0.0680241  0
0.157705 -0.0492955  0
0.165124 -0.0295599  0
0.168513 -0.00917271  0
0.167663 0.0113887  0
0.162473 0.0314345  0
0.153029 0.0501334  0
0.139699 0.0666894  0
0.123101 0.0802619  0
0.104107 0.0902258  0
0.0837577 0.0964285  0
0.0630212 0.0992854  0
0.0426195 0.0997055  0
0.0228508 0.0988686  0
0.00353168 0.0977693  0
-0.015862 0.0967979  0
-0.0357067 0.0950032  0
-0.0558301 0.0910433  0
-0.0755454 0.0837575  0
-0.0938312 0.0725364  0
-0.109554 0.0573865  0
-0.121666 0.0388331  0
-0.129324 0.0177243  0
-0.13194 -0.00491027  0
-0.129222 -0.0278411  0
-0.121256 -0.0496269  0
-0.108585 -0.0685802  0
-0.0922299 -0.0827214  0
-0.0736666 -0.0897855  0
-0.0546917 -0.087588  0
-0.0371494 -0.0750551  0
-0.0225332 -0.0541039  0
-0.011494 -0.0311882  0
-0.00344059 -0.0159249  0
0.0161171 -0.167544  0
0.0477055 -0.162317  0
0.0774587 -0.152501  0
0.104508 -0.138896  0
0.128332 -0.122242  0
0.148606 -0.103138  0
0.165102 -0.0820697  0
0.177664 -0.0594872  0
0.186155 -0.0357209  0
0.190329 -0.01101  0
0.189794 0.0142009  0
0.184268 0.0389125  0
0.173833 0.0620682  0
0.158817 0.0826609  0
0.139838 0.09944  0
0.11796 0.11148  0
0.0944468 0.118599  0
0.0704501 0.121409  0
0.0468066 0.121187  0
0.0238757 0.11965  0
0.00141552 0.11833  0
-0.0212523 0.11786  0
-0.0445542 0.116649  0
-0.0682159 0.112744  0
-0.0914085 0.104526  0
-0.112942 0.0911486  0
-0.131486 0.0726029  0
-0.145811 0.0496133  0
-0.154941 0.023293  0
-0.158151 -0.00509262  0
-0.155004 -0.0339642  0
-0.14554 -0.0613747  0
-0.130407 -0.0850779  0
-0.110877 -0.102551  0
-0.0887968 -0.111042  0
-0.0663569 -0.10819  0
-0.0456638 -0.0931324  0
-0.0282883 -0.0684622  0
-0.0148152 -0.041786  0
-0.00452607 -0.0241133  0
0.0184109 -0.202361  0
0.0543707 -0.195556  0
0.0879716 -0.183055  0
0.118249 -0.166107  0
0.144729 -0.145773  0
0.167191 -0.12278  0
0.185474 -0.0976426  0
0.199538 -0.0709752  0
0.209467 -0.0430866  0
0.215067 -0.0138343  0
0.215545 0.0166693  0
0.210311 0.0467535  0
0.199491 0.0750418  0
0.183216 0.100558  0
0.161915 0.121389  0
0.136883 0.136011  0
0.109701 0.144328  0
0.0816342 0.147312  0
0.0535316 0.146597  0
0.0258092 0.144459  0
-0.00170623 0.143063  0
-0.0295174 0.143172  0
-0.0577516 0.142439  0
-0.0859352 0.138366  0
-0.113197 0.128925  0
-0.138319 0.112973  0
-0.159853 0.0904247  0
-0.176459 0.0622892  0
-0.187137 0.0299929  0
-0.191044 -0.0051092  0
-0.187466 -0.0411071  0
-0.176233 -0.0753633  0
-0.158037 -0.104853  0
-0.134416 -0.126363  0
-0.107751 -0.136413  0
-0.0808537 -0.132593  0
-0.0561912 -0.114523  0
-0.0353803 -0.0856965  0
-0.0188894 -0.0549537  0
-0.00585195 -0.0347103  0
0.0206615 -0.24171  0
0.0609179 -0.232917  0
0.0983041 -0.217114  0
0.131735 -0.196186  0
0.160819 -0.171688  0
0.185515 -0.144451  0
0.205582 -0.11475  0
0.221035 -0.0838112  0
0.232587 -0.0521519  0
0.240466 -0.0186564  0
0.242941 0.0181084  0
0.238705 0.0543458  0
0.228527 0.0880295  0
0.212028 0.119921  0
0.18869 0.146236  0
0.160281 0.164179  0
0.129091 0.174105  0
0.0963922 0.177872  0
0.0627262 0.177378  0
0.0284054 0.175293  0
-0.0064762 0.174197  0
-0.0415702 0.174515  0
-0.076129 0.173461  0
-0.109495 0.168466  0
-0.141059 0.157224  0
-0.169826 0.138136  0
-0.194323 0.110866  0
-0.213216 0.0769199  0
-0.225755 0.0381537  0
-0.231032 -0.00451304  0
-0.227701 -0.0490413  0
-0.214902 -0.0918887  0
-0.193077 -0.128778  0
-0.16402 -0.155546  0
-0.131097 -0.167249  0
-0.0983976 -0.161785  0
-0.0689273 -0.139895  0
-0.0440928 -0.106402  0
-0.0239677 -0.0712971  0
-0.00751307 -0.0482916  0
0.0224307 -0.285064  0
0.0661959 -0.274059  0
0.106861 -0.254448  0
0.143041 -0.228886  0
0.17443 -0.199885  0
0.201481 -0.168421  0
0.22311 -0.132896  0
0.238782 -0.097207  0
0.251149 -0.0630846  0
0.262323 -0.0271911  0
0.267561 0.0185013  0
0.263238 0.0620942  0
0.254406 0.0988756  0
0.239731 0.139827  0
0.21472 0.174262  0
0.182564 0.196295  0
0.147447 0.207875  0
0.110503 0.213321  0
0.0713667 0.214307  0
0.029909 0.21372  0
-0.0134373 0.213575  0
-0.0566113 0.212982  0
-0.0974945 0.210013  0
-0.135577 0.202939  0
-0.170907 0.189224  0
-0.202987 0.166562  0
-0.230428 0.133958  0
-0.251994 0.093868  0
-0.267634 0.0489651  0
-0.276424 -0.0016778  0
-0.27562 -0.0564336  0
-0.262566 -0.110771  0
-0.236638 -0.158072  0
-0.199803 -0.192568  0
-0.157684 -0.205693  0
-0.11733 -0.196821  0
-0.0826004 -0.169486  0
-0.0538897 -0.130783  0
-0.0299752 -0.0913821  0
-0.00952274 -0.0655409  0
0.0234629 -0.331207  0
0.0697276 -0.318405  0
0.113242 -0.294701  0
0.151523 -0.263509  0
0.184394 -0.229937  0
0.214606 -0.196046  0
0.23686 -0.149566  0
0.248175 -0.107931  0
0.258095 -0.0750521  0
0.274993 -0.0437116  0
0.283164 0.0211977  0
0.269666 0.0768096  0
0.259785 0.10246  0
0.252239 0.158051  0
0.226978 0.205896  0
0.190478 0.232901  0
0.152107 0.244341  0
0.112903 0.252585  0
0.0709166 0.255746  0
0.0259185 0.258317  0
-0.0220577 0.259881  0
-0.069424 0.256797  0
-0.113213 0.250451  0
-0.153569 0.240523  0
-0.19112 0.224107  0
-0.226021 0.198247  0
-0.257119 0.160399  0
-0.282827 0.114288  0
-0.304057 0.0650013  0
-0.320115 0.00672057  0
-0.325875 -0.0602907  0
-0.315606 -0.130651  0
-0.286034 -0.194108  0
-0.23829 -0.241529  0
-0.182922 -0.254638  0
-0.13334 -0.238234  0
-0.0941105 -0.202454  0
-0.0631454 -0.157914  0
-0.0363755 -0.115359  0
-0.0117699 -0.0870446  0
0.0241558 -0.379063  0
0.0730568 -0.366159  0
0.120143 -0.33796  0
0.158842 -0.29764  0
0.189948 -0.260192  0
0.226193 -0.232654  0
0.245073 -0.154495  0
0.239429 -0.109073  0
0.240832 -0.0856355  0
0.266739 -0.0763418  0
0.277021 0.0349702  0
0.235862 0.117289  0
0.219739 0.0875773  0
0.231914 0.167899  0
0.213671 0.239144  0
0.171155 0.278262  0
0.127603 0.280491  0
0.0880378 0.294789  0
0.047324 0.295827  0
0.00988183 0.300259  0
-0.0285408 0.303922  0
-0.0670693 0.298237  0
-0.104805 0.290124  0
-0.142873 0.278863  0
-0.181635 0.26167  0
-0.221006 0.234549  0
-0.259258 0.19304  0
-0.29154 0.139231  0
-0.31891 0.0882528  0
-0.343332 0.0235417  0
-0.357509 -0.0575826  0
-0.353553 -0.147992  0
-0.326405 -0.233898  0
-0.269475 -0.306825  0
-0.199338 -0.31526  0
-0.143186 -0.283761  0
-0.10256 -0.2372  0
-0.0714734 -0.185637  0
-0.0432575 -0.143039  0
-0.0143107 -0.113334  0
0.0252355 -0.428679  0
0.0783362 -0.418973  0
0.131364 -0.385666  0
0.163739 -0.321412  0
0.181995 -0.286183  0
0.228708 -0.290019  0
0.234482 -0.122082  0
0.197463 -0.0990221  0
0.18915 -0.088978  0
0.185521 -0.0954787  0
0.195356 0.0337903  0
0.213771 0.141011  0
0.217275 0.0762724  0
0.216095 0.168007  0
0.208799 0.264372  0
0.141222 0.362924  0
0.0732392 0.307056  0
0.034746 0.34587  0
-0.00384474 0.323638  0
-0.0150266 0.320659  0
-0.0211415 0.327647  0
-0.0305317 0.322019  0
-0.0465552 0.319692  0
-0.0747564 0.315158  0
-0.118034 0.307011  0
-0.171497 0.281742  0
-0.229901 0.242302  0
-0.272664 0.164811  0
-0.295401 0.112578  0
-0.314578 0.0426132  0
-0.325139 -0.0521183  0
-0.321499 -0.161254  0
-0.317319 -0.252168  0
-0.27609 -0.387021  0
-0.200742 -0.38096  0
-0.152517 -0.322848  0
-0.117054 -0.274614  0
-0.0840292 -0.212748  0
-0.0532181 -0.175369  0
-0.0178657 -0.145717  0
0.0251615 -0.479291  0
0.0783943 -0.475112  0
0.136972 -0.441536  0
0.149906 -0.311152  0
0.135806 -0.300798  0
0.139277 -0.325788  0
0.171788 -0.208987  0
0.195264 -0.045949  0
0.18972 -0.0438949  0
0.130869 -0.046519  0
0.0814013 0.0107576  0
0.185074 0.0674353  0
0.201435 0.0394544  0
0.118987 0.0832752  0
0.0811998 0.136562  0
0.0704213 0.36893  0
0.0894203 0.316111  0
0.0318963 0.432626  0
-0.0265955 0.333655  0
-0.0160132 0.31083  0
0.00445938 0.322709  0
0.0210276 0.319371  0
0.02334 0.335644  0
-0.0195566 0.37  0
-0.05712 0.332809  0
-0.110008 0.321058  0
-0.163615 0.13657  0
-0.197789 0.0883675  0
-0.232522 0.0616959  0
-0.227922 0.0254888  0
-0.216105 -0.0249608  0
-0.221204 -0.0835454  0
-0.216696 -0.340261  0
-0.20115 -0.43001  0
-0.186496 -0.428178  0
-0.173996 -0.33656  0
-0.14975 -0.32092  0
-0.106721 -0.242907  0
-0.0678589 -0.215292  0
-0.0228133 -0.1866  0
0.0176246 -0.522181  0
0.0443664 -0.512401  0
0.0534837 -0.472143  0
0.0982543 -0.382861  0
0.15191 -0.152135  0
0.150036 -0.162894  0
0.0696387 -0.162894  0
0 0  0
0 0  0
0 0  0
0 0  0
0 0  0
0 0  0
0 0  0
0 0  0
0.0447101 0.158056  0
0.00240063 0.158056  0
-0.0129609 0.412335  0
0.0586972 0.33452  0
0.0475712 0.310303  0
0.0321254 0.318004  0
0.024508 0.314921  0
0.0212104 0.340876  0
0.0194226 0.37422  0
-0.0197426 0.166404  0
-0.02856 0.166404  0
0 0  0
0 0  0
0 0  0
0 0  0
0 0  0
0 0  0
-0.100575 -0.215005  0
-0.194739 -0.215005  0
-0.234298 -0.221416  0
-0.214531 -0.340914  0
-0.148793 -0.347423  0
-0.123905 -0.284527  0
-0.0760098 -0.260634  0
-0.0265014 -0.236016  0
0.00848075 -0.269903  0
0.0105348 -0.260759  0
0.0287959 -0.236071  0
0.0267419 -0.236071  0
0 0  0
0 0  0
0 0  0
0 0  0
0 0  0
0 0  0
0 0  0
0 0  0
0 0  0
0 0  0
0 0  0
0 0  0
0 0  0
0.0293486 0.16726  0
0.0652424 0.16726  0
0.0536692 0.160715  0
0.0337307 0.161162  0
0.0152318 0.159109  0
0.0098818 0.170438  0
0.0106052 0.170438  0
0 0  0
0 0  0
0 0  0
0 0  0
0 0  0
0 0  0
0 0  0
0 0  0
0 0  0
0 0  0
0 0  0
-0.0743963 -0.173711  0
-0.167797 -0.173711  0
-0.155796 -0.154707  0
-0.0994581 -0.14182  0
-0.0370628 -0.131259  0
0 0  0
0 0  0
0 0  0
0 0  0
0 0  0
0 0  0
0 0  0
0 0  0
0 0  0
0 0  0
0 0  0
0 0  0
0 0  0
0 0  0
0 0  0
0 0  0
0 0  0
0 0  0
0 0  0
0 0  0
0 0  0
0 0  0
0 0  0
0 0  0
0 0  0
0 0  0
0 0  0
0 0  0
0 0  0
0 0  0
0 0  0
0 0  0
0 0  0
0 0  0
0 0  0
0 0  0
0 0  0
0 0  0
0 0  0
0 0  0
0 0  0
0 0  0
0 0  0
0 0  0
0 0  0
0 0  0
0 0  0
0 0  0
0 0  0
0 0  0
0 0  0
0 0  0
0 0  0
0 0  0
0 0  0
0 0  0
0 0  0
0 0  0
0 0  0
0 0  0
0 0  0
0 0  0
0 0  0
0 0  0
0 0  0
0 0  0
0 0  0
0 0  0
0 0  0
0 0  0
0 0  0
0 0  0
0 0  0
0 0  0
0 0  0
0 0  0
0 0  0
0 0  0
0 0  0
0 0  0
0 0  0
0 0  0
0 0  0
0 0  0
0 0  0
0 0  0
0 0  0
0 0  0
0 0  0
0 0  0
0 0  0
0 0  0
0 0  0
0 0  0
0 0  0
0 0  0
0 0  0
0 0  0
0 0  0
0 0  0
0 0  0
0 0  0
0 0  0
0 0  0
0 0  0
0 0  0
0 0  0
0 0  0
0 0  0
0 0  0
0 0  0
0 0  0
0 0  0
0 0  0
0 0  0
0 0  0
0 0  0
0 0  0
0 0  0
0 0  0
0 0  0
0 0  0
0 0  0
0 0  0
0 0  0
0 0  0
0 0  0
0 0  0
0 0  0
0 0  0
0 0  0
0 0  0
0 0  0
0 0  0
0 0  0
0 0  0
0 0  0
0 0  0
0 0  0
0 0  0
0 0  0
0 0  0
0 0  0
0 0  0
0 0  0
0 0  0
0 0  0
0 0  0
0 0  0
0 0  0
0 0  0
0 0  0
0 0  0
0 0  0
0 0  0
0 0  0
0 0  0
0 0  0
0 0  0
0 0  0
0 0  0
0 0  0
0 0  0
0 0  0
0 0  0
0 0  0
0 0  0
0 0  0
0 0  0
0 0  0
0 0  0
0 0  0
0 0  0
0 0  0
0 0  0
0 0  0
0 0  0
0 0  0
0 0  0
0 0  0
0 0  0
0 0  0
0 0  0
0 0  0
0 0  0
0 0  0
0 0  0
0 0  0
0 0  0
0 0  0
0 0  0
0 0  0
0 0  0
0 0  0
0 0  0
0 0  0
0 0  0
0 0  0
0 0  0
0 0  0
0 0  0
0 0  0
0 0  0
0 0  0
0 0  0
0 0  0
0 0  0
0 0  0
0 0  0
0 0  0
0 0  0
0 0  0
0 0  0
0 0  0
0 0  0
0 0  0
0 0  0
0 0  0
0 0  0
0 0  0
0 0  0
0 0  0
0 0  0
0 0  0
0 0  0
0 0  0
0 0  0
0 0  0
0 0  0
0 0  0
0 0  0
0 0  0
0 0  0
0 0  0
0 0  0
0 0  0
0 0  0
0 0  0
0 0  0
0 0  0
0 0  0
0 0  0
0 0  0
0 0  0
0 0  0
0 0  0
0 0  0
0 0  0
0 0  0
0 0  0
0 0  0
0 0  0
0 0  0
0 0  0
0 0  0
0 0  0
0 0  0
0 0  0
0 0  0
0 0  0
0 0  0
0 0  0
0 0  0
0 0  0
0 0  0
0 0  0
0 0  0
0 0  0
0 0  0
0 0  0
0 0  0
0 0  0
0 0  0
0 0  0
0 0  0
0 0  0
0 0  0
0 0  0
0 0  0
0 0  0
0 0  0
0 0  0
0 0  0
0 0  0
0 0  0
0 0  0
0 0  0
0 0  0
0 0  0
0 0  0
0 0  0
0 0  0
0 0  0
0 0  0
0 0  0
0 0  0
0 0  0
0 0  0
0 0  0
0 0  0
0 0  0
0 0  0
0 0  0
0 0  0
0 0  0
0 0  0
0 0  0
0 0  0
0 0  0
0 0  0
0 0  0
0 0  0
0 0  0
0 0  0
0 0  0
0 0  0
0 0  0
0 0  0
0 0  0
0 0  0
0 0  0
0 0  0
0 0  0
0 0  0
0 0  0
0 0  0
0 0  0
0 0  0
0 0  0
0 0  0
0 0  0
0 0  0
0 0  0
0 0  0
0 0  0
0 0  0
0 0  0
0 0  0
0 0  0
0 0  0
0 0  0
0 0  0
0 0  0
0 0  0
0 0  0
0 0  0
0 0  0
0 0  0
0 0  0
0 0  0
0 0  0
0 0  0
0 0  0
0 0  0
0 0  0
0 0  0
0 0  0
0 0  0
0 0  0
0 0  0
0 0  0
0 0  0
0 0  0
0 0  0
0 0  0
0 0  0
0 0  0
0 0  0
0 0  0
0 0  0
0 0  0
0 0  0
0 0  0
0 0  0
0 0  0
0 0  0
0 0  0
0 0  0
0 0  0
0 0  0
0 0  0
0 0  0
0 0  0
0 0  0
0 0  0
0 0  0
0 0  0
0 0  0
0 0  0
0 0  0
0 0  0
0 0  0
0 0  0
0 0  0
0 0  0
0 0  0
0 0  0
0 0  0
0 0  0
0 0  0
0 0  0
0 0  0
0 0  0
0 0  0
0 0  0
0 0  0
0 0  0
0 0  0
0 0  0
0 0  0
0 0  0
0 0  0
0 0  0
0 0  0
0 0  0
0 0  0
0 0  0
0 0  0
0 0  0
0 0  0
0 0  0
0 0  0
0 0  0
0 0  0
0 0  0
0 0  0
0 0  0
0 0  0
0 0  0
0 0  0
0 0  0
0 0  0
0 0  0
0 0  0
0 0  0
0 0  0
0 0  0
0 0  0
0 0  0
0 0  0
0 0  0
0 0  0
0 0  0
0 0  0
0 0  0
0 0  0
0 0  0
0 0  0
0 0  0
0 0  0
0 0  0
0 0  0
0 0  0
0 0  0
0 0  0
0 0  0
0 0  0
0 0  0
0 0  0
0 0  0
0 0  0
0 0  0
0 0  0
0 0  0
0 0  0
0 0  0
0 0  0
0 0  0
0 0  0
0 0  0
0 0  0
0 0  0
0 0  0
0 0  0
0 0  0
0 0  0
0 0  0
0 0  0
0 0  0
0 0  0
0 0  0
0 0  0
0 0  0
0 0  0
0 0  0
0 0  0
0 0  0
0 0  0
0 0  0
0 0  0
0 0  0
0 0  0
0 0  0
0 0  0
0 0  0
0 0  0
0 0  0
0 0  0
0 0  0
0 0  0
0 0  0
0 0  0
0 0  0
0 0  0
0 0  0
0 0  0
0 0  0
0 0  0
0 0  0
0 0  0
0 0  0
0 0  0
0 0  0
0 0  0
0 0  0
0 0  0
0 0  0
0 0  0
0 0  0
0 0  0

SCALARS pressure double 1
LOOKUP_TABLE default
3.7828
3.78143
3.77869
3.77485
3.7702
3.76513
3.76003
3.75529
3.75125
3.74817
3.74624
3.74553
3.74603
3.74762
3.75011
3.75325
3.75676
3.75969
3.76234
3.76485
3.76683
3.76803
3.76859
3.76875
3.7687
3.76861
3.76873
3.7693
3.77048
3.77237
3.77495
3.77813
3.78174
3.78554
3.78926
3.79265
3.79554
3.79781
3.79939
3.80021
3.57389
3.57245
3.56957
3.5655
3.5606
3.55526
3.54989
3.54491
3.54068
3.53747
3.53548
3.53478
3.53538
3.53713
3.53983
3.54322
3.54604
3.54941
3.55266
3.55511
3.55694
3.55817
3.55872
3.55873
3.55847
3.55821
3.55822
3.5587
3.55984
3.56175
3.56443
3.56776
3.57156
3.57558
3.57952
3.58315
3.58626
3.58871
3.59043
3.59131
3.35619
3.35458
3.35136
3.34683
3.34136
3.33542
3.32947
3.32398
3.31933
3.31584
3.31372
3.31306
3.31383
3.31589
3.31902
3.32178
3.32584
3.32969
3.33296
3.33575
3.33775
3.33885
3.33917
3.33891
3.33831
3.33769
3.33736
3.33761
3.33866
3.34061
3.34345
3.34707
3.35125
3.35571
3.36013
3.36423
3.36777
3.37059
3.37257
3.3736
3.12981
3.12793
3.12416
3.11885
3.11247
3.10555
3.09866
3.09233
3.08702
3.08309
3.08076
3.08014
3.0812
3.08377
3.08645
3.09101
3.09541
3.0999
3.10394
3.10703
3.10914
3.11017
3.11015
3.10937
3.10816
3.10692
3.10605
3.1059
3.10676
3.10875
3.11185
3.11592
3.1207
3.12587
3.13106
3.1359
3.14014
3.14355
3.14596
3.14722
2.89495
2.89265
2.88805
2.88159
2.87385
2.86549
2.85722
2.84968
2.84343
2.83887
2.83625
2.8357
2.83719
2.83955
2.84409
2.84922
2.85504
2.86055
2.8654
2.86914
2.87147
2.87227
2.87172
2.87013
2.86797
2.86575
2.86403
2.86327
2.86381
2.86584
2.8693
2.87402
2.8797
2.88593
2.89224
2.89821
2.90348
2.90775
2.9108
2.91239
2.65188
2.64897
2.64319
2.63509
2.62543
2.61504
2.60483
2.59562
2.58808
2.58268
2.5797
2.57927
2.58068
2.58447
2.59021
2.59709
2.60444
2.61162
2.61776
2.62234
2.62499
2.62548
2.62408
2.62125
2.61762
2.61394
2.61094
2.60925
2.60932
2.61136
2.61532
2.62097
2.62793
2.63567
2.64361
2.65119
2.65792
2.66343
2.66737
2.66943
2.40096
2.3972
2.38978
2.37941
2.36707
2.35388
2.34101
2.32955
2.32031
2.31384
2.3104
2.30977
2.31194
2.31739
2.3248
2.33395
2.34374
2.35319
2.36131
2.36716
2.37023
2.37023
2.36753
2.3628
2.35695
2.35107
2.34619
2.34316
2.34253
2.34457
2.3492
2.35613
2.36488
2.37478
2.38503
2.39487
2.40368
2.41091
2.41609
2.4188
2.1427
2.13779
2.12811
2.11462
2.09861
2.08157
2.06509
2.05061
2.0392
2.03141
2.02729
2.02667
2.03025
2.03719
2.04718
2.05938
2.07273
2.08562
2.09656
2.10428
2.10796
2.10715
2.10246
2.09485
2.08566
2.07651
2.06889
2.06395
2.06235
2.06437
2.06989
2.07856
2.08983
2.10279
2.1163
2.12933
2.14102
2.15062
2.1575
2.1611
1.87782
1.87133
1.8586
1.84087
1.81987
1.79756
1.77613
1.75768
1.74356
1.73418
1.72929
1.72921
1.73392
1.7429
1.75618
1.77276
1.79118
1.80914
1.82427
1.83471
1.83923
1.83718
1.82947
1.81749
1.80326
1.78921
1.77769
1.77013
1.76723
1.76921
1.77586
1.78686
1.80163
1.81899
1.83719
1.85469
1.87034
1.88319
1.89237
1.89715
1.60731
1.59874
1.58192
1.5585
1.53077
1.5012
1.47285
1.44923
1.43191
1.42083
1.41545
1.41581
1.42147
1.43297
1.4502
1.47276
1.49871
1.52417
1.54548
1.55985
1.5655
1.5616
1.54942
1.53087
1.50898
1.48755
1.47054
1.45961
1.45512
1.45696
1.4649
1.47883
1.49846
1.52236
1.54736
1.57111
1.59224
1.60949
1.62173
1.62806
1.33269
1.32141
1.29919
1.26817
1.23152
1.19189
1.15335
1.12317
1.10259
1.09025
1.08462
1.08511
1.0916
1.10513
1.12677
1.15724
1.1948
1.23148
1.26171
1.28158
1.28873
1.28222
1.26364
1.23542
1.20185
1.16886
1.14458
1.12977
1.12358
1.12506
1.13401
1.15105
1.17721
1.21143
1.24652
1.27892
1.30755
1.3307
1.34692
1.35522
1.05617
1.0415
1.01216
0.970915
0.923113
0.86953
0.813971
0.776484
0.754124
0.741781
0.736001
0.737025
0.743574
0.757201
0.782072
0.822166
0.879365
0.932708
0.975503
1.00261
1.01156
1.00178
0.97461
0.932534
0.881264
0.828415
0.795967
0.777954
0.77057
0.771106
0.77951
0.798166
0.83195
0.884383
0.934721
0.978507
1.01747
1.04852
1.06975
1.08037
0.780838
0.762267
0.723493
0.667513
0.608411
0.53656
0.445168
0.404706
0.386053
0.375667
0.369608
0.373037
0.378924
0.38827
0.410542
0.457589
0.555443
0.63168
0.69179
0.727442
0.738312
0.724986
0.687309
0.626026
0.549609
0.45503
0.420281
0.40276
0.396203
0.39521
0.399327
0.413341
0.449957
0.54109
0.613808
0.670018
0.724064
0.765685
0.792621
0.805492
0.510323
0.488487
0.43764
0.354814
0.295081
0.208653
0.0135905
0.00333855
0.000553128
0.00119826
-0.00632665
-0.00300549
0.00137871
-0.000860666
0.0040682
0.0277415
0.240979
0.334065
0.419863
0.463971
0.476169
0.460088
0.411581
0.322985
0.224636
0.0109307
0.0159421
0.00576988
0.00546794
0.00433369
0.00134998
-0.00300975
-0.00102877
0.19511
0.291999
0.351005
0.43209
0.487308
0.518698
0.532392
0.247562
0.228236
0.168323
0.00779596
-0.0017461
-0.0135597
0
0
0
0
0
0
0
0
0
0
0.0310889
0.0275229
0.177123
0.222072
0.232046
0.217352
0.165483
0.0174779
0.00472762
0
0
0
0
0
0
0
0
-0.0613374
-0.0074968
6.42125e-05
0.156073
0.223121
0.250998
0.261058
-0.00902788
-0.0047055
-0.00450937
0
0
0
0
0
0
0
0
0
0
0
0
0
0
0
0.0304441
0.00555297
0.00221616
0.00170051
0.0038143
0
0
0
0
0
0
0
0
0
0
0
0
0
-0.0401779
-0.0121102
-0.0114746
-0.0132278
0
0
0
0
0
0
0
0
0
0
0
0
0
0
0
0
0
0
0
0
0
0
0
0
0
0
0
0
0
0
0
0
0
0
0
0
0
0
0
0
0
0
0
0
0
0
0
0
0
0
0
0
0
0
0
0
0
0
0
0
0
0
0
0
0
0
0
0
0
0
0
0
0
0
0
0
0
0
0
0
0
0
0
0
0
0
0
0
0
0
0
0
0
0
0
0
0
0
0
0
0
0
0
0
0
0
0
0
0
0
0
0
0
0
0
0
0
0
0
0
0
0
0
0
0
0
0
0
0
0
0
0
0
0
0
0
0
0
0
0
0
0
0
0
0
0
0
0
0
0
0
0
0
0
0
0
0
0
0
0
0
0
0
0
0
0
0
0
0
0
0
0
0
0
0
0
0
0
0
0
0
0
0
0
0
0
0
0
0
0
0
0
0
0
0
0
0
0
0
0
0
0
0
0
0
0
0
0
0
0
0
0
0
0
0
0
0
0
0
0
0
0
0
0
0
0
0
0
0
0
0
0
0
0
0
0
0
0
0
0
0
0
0
0
0
0
0
0
0
0
0
0
0
0
0
0
0
0
0
0
0
0
0
0
0
0
0
0
0
0
0
0
0
0
0
0
0
0
0
0
0
0
0
0
0
0
0
0
0
0
0
0
0
0
0
0
0
0
0
0
0
0
0
0
0
0
0
0
0
0
0
0
0
0
0
0
0
0
0
0
0
0
0
0
0
0
0
0
0
0
0
0
0
0
0
0
0
0
0
0
0
0
0
0
0
0
0
0
0
0
0
0
0
0
0
0
0
0
0
0
0
0
0
0
0
0
0
0
0
0
0
0
0
0
0
0
0
0
0
0
0
0
0
0
0
0
0
0
0
0
0
0
0
0
0
0
0
0
0
0
0
0
0
0
0
0
0
0
0
0
0
0
0
0
0
0
0
0
0
0
0
0
0
0
0
0
0
0
0
0
0
0
0
0
0
0
0
0
0
0
0
0
0
0
0
0
0
0
0
0
0
0
0
0
0
0
0
0
0
0
0
0
0
0
0
0
0
0
0
0
0
0
0
0
0
0
0
0
0
0
0
0
0
0
0
0
0
0
0
0
0
0
0
0
0
0
0
0
0
0
0
0
0
0
0
0
0
0
0
0
0
0
0
0
0
0
0
0
0
0
0
0
0
0
0
0
0
0
0
0
0
0
0
0
0
0
0
0
0
0
0
0
0
0
0
0
0
0
0
0
0
0
0
0
0
0
0
0
0
0
SCALARS rhs double 1
LOOKUP_TABLE default
-5.39293
-5.33414
-5.33063
-5.32703
-5.32316
-5.3193
-5.3157
-5.31259
-5.31016
-5.30855
-5.30772
-5.30763
-5.30811
-5.30899
-5.31007
-5.31117
-5.31213
-5.31285
-5.31328
-5.31343
-5.31405
-5.31422
-5.31201
-5.31104
-5.30987
-5.30864
-5.30749
-5.30662
-5.30624
-5.30654
-5.30756
-5.30927
-5.31138
-5.31334
-5.31438
-5.31384
-5.31171
-5.30916
-5.30764
-5.30733
-0.330167
-0.274939
-0.272858
-0.270627
-0.268077
-0.265442
-0.262955
-0.260826
-0.259226
-0.258265
-0.257803
-0.258118
-0.259045
-0.260343
-0.261804
-0.263217
-0.264409
-0.265276
-0.265784
-0.265955
-0.266676
-0.266731
-0.26449
-0.263435
-0.262141
-0.260728
-0.259385
-0.258339
-0.257821
-0.258203
-0.259023
-0.260423
-0.262108
-0.263568
-0.264138
-0.263271
-0.261096
-0.258733
-0.257444
-0.257187
-0.327568
-0.275111
-0.273027
-0.270768
-0.268188
-0.265527
-0.263018
-0.26087
-0.259249
-0.258267
-0.257614
-0.257874
-0.258781
-0.260053
-0.261471
-0.262815
-0.263906
-0.26465
-0.265038
-0.265125
-0.26604
-0.265947
-0.263864
-0.262956
-0.261795
-0.260487
-0.259222
-0.258235
-0.257756
-0.258427
-0.259269
-0.260641
-0.262196
-0.263381
-0.263526
-0.262173
-0.259615
-0.257109
-0.255877
-0.255728
-0.325738
-0.276644
-0.274518
-0.272185
-0.269537
-0.266821
-0.264273
-0.262096
-0.260451
-0.259448
-0.258531
-0.258747
-0.259626
-0.260854
-0.262193
-0.263404
-0.264305
-0.264818
-0.264983
-0.264912
-0.266145
-0.265793
-0.26402
-0.263388
-0.262478
-0.26137
-0.260254
-0.259376
-0.258933
-0.260038
-0.260902
-0.262204
-0.263532
-0.264266
-0.263747
-0.261657
-0.258534
-0.255809
-0.254649
-0.254597
-0.32473
-0.279567
-0.277331
-0.274851
-0.272072
-0.26926
-0.26665
-0.264443
-0.262791
-0.261792
-0.260534
-0.26074
-0.261597
-0.262764
-0.263971
-0.264952
-0.265524
-0.265648
-0.265439
-0.265106
-0.266795
-0.266086
-0.264832
-0.264672
-0.264202
-0.263451
-0.262598
-0.261909
-0.261635
-0.26312
-0.26414
-0.265306
-0.266256
-0.266295
-0.264793
-0.261647
-0.257727
-0.254676
-0.253564
-0.253587
-0.325099
-0.284397
-0.28191
-0.279136
-0.276107
-0.273117
-0.270408
-0.268179
-0.266573
-0.265668
-0.264036
-0.264318
-0.265198
-0.266307
-0.267313
-0.267914
-0.267952
-0.267469
-0.266697
-0.265979
-0.268342
-0.267132
-0.266673
-0.267263
-0.267519
-0.267373
-0.266969
-0.266587
-0.26652
-0.268628
-0.269842
-0.270756
-0.271091
-0.270058
-0.267096
-0.262425
-0.257367
-0.253823
-0.252725
-0.252792
-0.327528
-0.291747
-0.28872
-0.285356
-0.281839
-0.278508
-0.27561
-0.273363
-0.271926
-0.27134
-0.269503
-0.270034
-0.271079
-0.272203
-0.27294
-0.272945
-0.272177
-0.270848
-0.269354
-0.268183
-0.2717
-0.269595
-0.270242
-0.271906
-0.273274
-0.274105
-0.27443
-0.274541
-0.274799
-0.277822
-0.279362
-0.279854
-0.279198
-0.276491
-0.271296
-0.264344
-0.257602
-0.253324
-0.252221
-0.252325
-0.332586
-0.302044
-0.297936
-0.293432
-0.288983
-0.285004
-0.2817
-0.279358
-0.278272
-0.278469
-0.277127
-0.278168
-0.279693
-0.281142
-0.281647
-0.280809
-0.278963
-0.276693
-0.27457
-0.273145
-0.278965
-0.27478
-0.276721
-0.27963
-0.282506
-0.284785
-0.286218
-0.287095
-0.287958
-0.292436
-0.294671
-0.294613
-0.292433
-0.287095
-0.278379
-0.267904
-0.258613
-0.253252
-0.252183
-0.252374
-0.340069
-0.314866
-0.308856
-0.302349
-0.296311
-0.291275
-0.287081
-0.284188
-0.283467
-0.285218
-0.285936
-0.287568
-0.290037
-0.292886
-0.293672
-0.291888
-0.288953
-0.286222
-0.284314
-0.284134
-0.293153
-0.285398
-0.287757
-0.291422
-0.295838
-0.299889
-0.302718
-0.304687
-0.306908
-0.313975
-0.318199
-0.317997
-0.313794
-0.304448
-0.290053
-0.27406
-0.260875
-0.253911
-0.25295
-0.253296
-0.348119
-0.328256
-0.319589
-0.310092
-0.301805
-0.295754
-0.289569
-0.284337
-0.283046
-0.287793
-0.292457
-0.293148
-0.296082
-0.303644
-0.306792
-0.304632
-0.301394
-0.300042
-0.300658
-0.305795
-0.317909
-0.304653
-0.304469
-0.306899
-0.311686
-0.316914
-0.320775
-0.323997
-0.329428
-0.341317
-0.351493
-0.353608
-0.348109
-0.333447
-0.309666
-0.284766
-0.265561
-0.256116
-0.255247
-0.255681
-0.353508
-0.339703
-0.328606
-0.315099
-0.304006
-0.299726
-0.287723
-0.274503
-0.269653
-0.283717
-0.291302
-0.28334
-0.279757
-0.299055
-0.311787
-0.312717
-0.311114
-0.314822
-0.321229
-0.337626
-0.352472
-0.330177
-0.323416
-0.320949
-0.322815
-0.326466
-0.329882
-0.333991
-0.345709
-0.364934
-0.388384
-0.400386
-0.40033
-0.382733
-0.342895
-0.302464
-0.273742
-0.260343
-0.259778
-0.260149
-0.35477
-0.350383
-0.338661
-0.316958
-0.300932
-0.313067
-0.281463
-0.24558
-0.237837
-0.277884
-0.270107
-0.259675
-0.235813
-0.244033
-0.288276
-0.310043
-0.308664
-0.320486
-0.330933
-0.358967
-0.371336
-0.343259
-0.329395
-0.319756
-0.315161
-0.312144
-0.314686
-0.317581
-0.334717
-0.35081
-0.384914
-0.419659
-0.451665
-0.458855
-0.392334
-0.323282
-0.281968
-0.263202
-0.265694
-0.267008
-0.355518
-0.367544
-0.358061
-0.308171
-0.281679
-0.358401
-0.291212
-0.190128
-0.226679
-0.0973168
0.00214719
-0.237273
-0.232909