# vtk DataFile Version 4.0
Nusif Fluid VTK output
ASCII
DATASET STRUCTURED_POINTS
DIMENSIONS 40 30 1
ORIGIN 0 0 0 
SPACING 0.2 0.2 1
POINT_DATA 1200 

VECTORS velocity double
-0.0035316 0.00312057  0
-0.0104581 0.0030487  0
-0.0170996 0.00290248  0
-0.0233701 0.00268154  0
-0.02912 0.00238597  0
-0.0342012 0.0020167  0
-0.0384682 0.0015756  0
-0.0417803 0.00106564  0
-0.0440038 0.000490709  0
-0.0450135 -0.0001445  0
-0.0446946 -0.000834364  0
-0.0429455 -0.00157136  0
-0.0396832 -0.00234448  0
-0.034852 -0.00313735  0
-0.028437 -0.00392563  0
-0.0204821 -0.00467512  0
-0.011109 -0.00534203  0
-0.000532674 -0.00587688  0
0.010933 -0.00623038  0
0.0228891 -0.00636668  0
0.0348846 -0.0062698  0
0.0464609 -0.00594757  0
0.0571983 -0.00543173  0
0.0667595 -0.00477222  0
0.0749137 -0.00402606  0
0.0815404 -0.00324608  0
0.0866135 -0.00247419  0
0.0901787 -0.00173986  0
0.0923303 -0.00106238  0
0.0931946 -0.000454226  0
0.0929191 7.56992e-05  0
0.091667 0.000520839  0
0.0896111 0.000878051  0
0.0869172 0.00115764  0
0.0836758 0.00142435  0
0.0796747 0.00191646  0
0.0738475 0.00324979  0
0.063551 0.00638518  0
0.0449747 0.0115292  0
0.0165573 0.0162263  0
-0.00360345 0.00949966  0
-0.010676 0.00928277  0
-0.0174663 0.0088429  0
-0.0238858 0.0081785  0
-0.0297839 0.00728947  0
-0.0350106 0.00617824  0
-0.0394181 0.00485054  0
-0.042864 0.00331539  0
-0.0452128 0.00158453  0
-0.0463374 -0.000328201  0
-0.0461202 -0.00240664  0
-0.0444545 -0.00462973  0
-0.0412482 -0.00696668  0
-0.0364323 -0.00937077  0
-0.0299741 -0.0117708  0
-0.0218979 -0.014064  0
-0.0123096 -0.0161153  0
-0.00142044 -0.0177683  0
0.0104425 -0.0188657  0
0.0228485 -0.019291  0
0.0353027 -0.018993  0
0.047298 -0.0179942  0
0.0583725 -0.0163965  0
0.0681638 -0.0143607  0
0.0764385 -0.012069  0
0.0830909 -0.00968667  0
0.0881184 -0.00734091  0
0.0915893 -0.00511802  0
0.0936147 -0.00307234  0
0.0943313 -0.00123842  0
0.0938922 0.000359109  0
0.0924627 0.00170185  0
0.0902151 0.00278157  0
0.0873115 0.00363122  0
0.0838339 0.00444801  0
0.0795583 0.00594682  0
0.0734221 0.00995936  0
0.0628555 0.0193146  0
0.0442464 0.0345607  0
0.0162315 0.0484028  0
-0.00374859 0.0161657  0
-0.0111149 0.0158034  0
-0.0182035 0.0150697  0
-0.0249226 0.0139606  0
-0.0311192 0.0124742  0
-0.0366389 0.0106138  0
-0.0413297 0.00838901  0
-0.045045 0.00581554  0
-0.0476461 0.00291345  0
-0.0490031 -0.000294606  0
-0.048994 -0.00378393  0
-0.0475035 -0.00752471  0
-0.0444226 -0.0114734  0
-0.0396549 -0.0155611  0
-0.0331292 -0.0196766  0
-0.0248253 -0.0236498  0
-0.0148106 -0.0272434  0
-0.00328172 -0.0301688  0
0.00940805 -0.0321284  0
0.0227593 -0.0328963  0
0.0361806 -0.0323745  0
0.0490569 -0.0305962  0
0.0608309 -0.0277555  0
0.0710859 -0.0241614  0
0.0795867 -0.0201584  0
0.0862674 -0.016046  0
0.0911811 -0.0120395  0
0.094446 -0.00827294  0
0.0962083 -0.00482383  0
0.0966242 -0.00173905  0
0.0958556 0.000947063  0
0.0940711 0.00320683  0
0.091445 0.0050286  0
0.088139 0.00647164  0
0.084231 0.00787078  0
0.0794943 0.0104137  0
0.072895 0.0171052  0
0.061981 0.0325265  0
0.0433678 0.0574483  0
0.0158512 0.0799242  0
-0.00396605 0.0232028  0
-0.0117725 0.0226979  0
-0.0193095 0.0216745  0
-0.0264814 0.0201224  0
-0.0331306 0.0180354  0
-0.0390955 0.0154162  0
-0.0442161 0.0122787  0
-0.0483393 0.00864679  0
-0.0513227 0.00455071  0
-0.0530341 2.23168e-05  0
-0.0533487 -0.00490787  0
-0.0521419 -0.0102092  0
-0.049283 -0.0158383  0
-0.0446344 -0.021721  0
-0.0380613 -0.0277227  0
-0.0294619 -0.0336133  0
-0.0188233 -0.0390388  0
-0.00630159 -0.0435293  0
0.00771189 -0.0465765  0
0.022601 -0.047794  0
0.0376071 -0.04701  0
0.0519195 -0.0442559  0
0.0648067 -0.0398643  0
0.0757593 -0.0343684  0
0.0845527 -0.0283551  0
0.0912093 -0.0222973  0
0.0958912 -0.0164955  0
0.0988045 -0.011108  0
0.100148 -0.00620842  0
0.100101 -0.00183811  0
0.0988325 0.00196726  0
0.0965153 0.00517187  0
0.0933287 0.0077592  0
0.089443 0.00981515  0
0.0849468 0.0118138  0
0.0796296 0.0154064  0
0.0725023 0.024721  0
0.0612283 0.0459805  0
0.0426058 0.0801118  0
0.0155243 0.110741  0
-0.00425374 0.0307544  0
-0.0126439 0.0301141  0
-0.0207797 0.0288107  0
-0.0285621 0.0268217  0
-0.0358254 0.0241313  0
-0.0423955 0.0207395  0
-0.0480991 0.0166654  0
-0.0527731 0.0119449  0
-0.0562707 0.00662292  0
-0.0584616 0.000743456  0
-0.0592241 -0.00565933  0
-0.0584309 -0.0125634  0
-0.0559313 -0.0199468  0
-0.0515356 -0.0277597  0
-0.0450141 -0.0358801  0
-0.0361246 -0.0440455  0
-0.024697 -0.0517728  0
-0.01079 -0.0583235  0
0.00515603 -0.0628412  0
0.0223389 -0.0647009  0
0.0397315 -0.0636018  0
0.0561939 -0.0595397  0
0.0706939 -0.0530695  0
0.0825689 -0.0450937  0
0.0916407 -0.0365991  0
0.0981192 -0.0282936  0
0.102368 -0.0205365  0
0.104732 -0.0134521  0
0.105475 -0.00706045  0
0.104796 -0.00136931  0
0.102857 0.00359425  0
0.0998263 0.0077817  0
0.0958899 0.0111602  0
0.0912444 0.0138327  0
0.0860154 0.0164085  0
0.080034 0.020997  0
0.0723591 0.0328194  0
0.0607322 0.0596698  0
0.0420638 0.1026  0
0.0152879 0.140996  0
-0.0046067 0.0389571  0
-0.0137171 0.0381966  0
-0.0226027 0.0366349  0
-0.031161 0.034225  0
-0.0392128 0.0309316  0
-0.0465616 0.0267481  0
-0.0530111 0.0217014  0
-0.0583822 0.0158471  0
-0.0625242 0.00925517  0
-0.0653159 0.00199028  0
-0.0666532 -0.00590823  0
-0.066424 -0.014437  0
-0.0644705 -0.0236248  0
-0.0605491 -0.0334958  0
-0.054297 -0.0440132  0
-0.0452365 -0.054957  0
-0.0328991 -0.0657201  0
-0.0171466 -0.075129  0
0.00148986 -0.0817113  0
0.0219269 -0.0845439  0
0.0427571 -0.0830756  0
0.0623107 -0.0771767  0
0.0790406 -0.067758  0
0.0920281 -0.0563647  0
0.101224 -0.0446938  0
0.107213 -0.0337664  0
0.110711 -0.0239123  0
0.11227 -0.0151015  0
0.112223 -0.00721175  0
0.110752 -0.000172152  0
0.107978 0.0060041  0
0.104041 0.0112337  0
0.0991412 0.0154371  0
0.0935267 0.0187083  0
0.0874011 0.0217797  0
0.0806739 0.0272265  0
0.0724525 0.0413783  0
0.0604966 0.0735856  0
0.041744 0.124998  0
0.0151404 0.170871  0
-0.00501437 0.0479315  0
-0.0149667 0.0470839  0
-0.0247521 0.0453103  0
-0.0342658 0.0425146  0
-0.0433027 0.0386251  0
-0.0516262 0.0336228  0
-0.0590004 0.0275477  0
-0.065219 0.0204893  0
-0.0701264 0.0125628  0
-0.0736228 0.00387291  0
-0.0756475 -0.00552507  0
-0.0761356 -0.0156557  0
-0.0749544 -0.0266334  0
-0.0718147 -0.0386393  0
-0.0661641 -0.051862  0
-0.0571301 -0.0662909  0
-0.043727 -0.0812138  0
-0.0255395 -0.0946619  0
-0.00335862 -0.104082  0
0.0213577 -0.108413  0
0.0468131 -0.106579  0
0.0705869 -0.0980885  0
0.0902564 -0.0843349  0
0.104461 -0.0680708  0
0.113462 -0.0522764  0
0.118519 -0.0383243  0
0.120886 -0.0263154  0
0.121384 -0.0158521  0
0.120393 -0.00652231  0
0.118015 0.00188801  0
0.114265 0.00936773  0
0.109222 0.015749  0
0.103098 0.0208437  0
0.0962295 0.0246823  0
0.0889658 0.0280923  0
0.0813636 0.0341406  0
0.0725945 0.0503521  0
0.0603627 0.0876969  0
0.0415325 0.147367  0
0.0150377 0.200498  0
-0.00545447 0.0577655  0
-0.0163391 0.0569007  0
-0.0271732 0.0550109  0
-0.0378473 0.051901  0
-0.0481056 0.0474342  0
-0.0576396 0.0415728  0
-0.0661446 0.0343799  0
-0.0733667 0.0260023  0
-0.0791401 0.0166367  0
-0.0834033 0.00646642  0
-0.0861749 -0.00441273  0
-0.087488 -0.0160555  0
-0.0872744 -0.028715  0
-0.0851811 -0.0428754  0
-0.0803278 -0.0592126  0
-0.0711919 -0.0781915  0
-0.056123 -0.0988652  0
-0.0347468 -0.117654  0
-0.00856184 -0.130536  0
0.0207647 -0.137082  0
0.051466 -0.135147  0
0.0803199 -0.123229  0
0.103413 -0.10304  0
0.118687 -0.0799283  0
0.127207 -0.0590257  0
0.131196 -0.0417103  0
0.132378 -0.027568  0
0.13181 -0.0156209  0
0.129914 -0.00496037  0
0.126656 0.00486845  0
0.121865 0.0138322  0
0.115509 0.0215879  0
0.107812 0.0277293  0
0.099254 0.0321264  0
0.0904307 0.0356382  0
0.0816724 0.0418581  0
0.0722856 0.0596934  0
0.0598644 0.101912  0
0.0410899 0.16966  0
0.0148528 0.22984  0
-0.00588044 0.068478  0
-0.0177253 0.0677473  0
-0.0297575 0.0659351  0
-0.0418485 0.0626473  0
-0.053637 0.0576412  0
-0.0646871 0.0508577  0
-0.0745783 0.0424001  0
-0.0829718 0.0325078  0
-0.0896756 0.0215201  0
-0.0946855 0.00976939  0
-0.0981483 -0.00256606  0
-0.100233 -0.0155867  0
-0.100902 -0.0298095  0
-0.0995338 -0.0463208  0
-0.0945274 -0.066703  0
-0.0834913 -0.0919473  0
-0.0647642 -0.119978  0
-0.0398117 -0.143941  0
-0.0113057 -0.160011  0
0.0204175 -0.169729  0
0.0548103 -0.168668  0
0.088048 -0.152874  0
0.113615 -0.123131  0
0.12874 -0.0913131  0
0.137058 -0.0655589  0
0.141664 -0.0448546  0
0.143281 -0.0283077  0
0.142709 -0.0148271  0
0.140574 -0.00281205  0
0.136821 0.00864256  0
0.131093 0.0194862  0
0.12322 0.0290732  0
0.113455 0.0366144  0
0.102489 0.0416732  0
0.0913074 0.045005  0
0.0807356 0.0507297  0
0.0704192 0.0694334  0
0.0579019 0.116019  0
0.0396076 0.19153  0
0.014288 0.258435  0
-0.00619881 0.0799477  0
-0.0189171 0.0796864  0
-0.0323192 0.0783414  0
-0.0461933 0.0751178  0
-0.0599531 0.0696315  0
-0.0729457 0.0618237  0
-0.0845703 0.0518645  0
-0.0943394 0.0401217  0
-0.101989 0.0271763  0
-0.107581 0.0136342  0
-0.111429 -0.000200164  0
-0.113785 -0.014588  0
-0.114309 -0.0306904  0
-0.111345 -0.0508451  0
-0.101772 -0.0778276  0
-0.0831525 -0.111545  0
-0.056745 -0.14658  0
-0.0308374 -0.169263  0
-0.00740359 -0.187693  0
0.0203159 -0.202554  0
0.053454 -0.204439  0
0.0870345 -0.184988  0
0.110024 -0.140642  0
0.11984 -0.0998123  0
0.128702 -0.075314  0
0.140325 -0.0524037  0
0.148544 -0.0316746  0
0.151915 -0.0153401  0
0.151835 -0.00116821  0
0.148822 0.0126807  0
0.14262 0.0262926  0
0.13305 0.0386252  0
0.120467 0.0483245  0
0.10584 0.0544688  0
0.0907124 0.057433  0
0.0767954 0.0617043  0
0.064585 0.0798996  0
0.0520166 0.129552  0
0.0353339 0.211888  0
0.0127326 0.284913  0
-0.00625754 0.0918075  0
-0.0196198 0.0927692  0
-0.0346966 0.0926551  0
-0.0509735 0.0898731  0
-0.0673852 0.0839663  0
-0.082954 0.0749696  0
-0.0968452 0.0631544  0
-0.108316 0.0489929  0
-0.1169 0.0334605  0
-0.122688 0.0176546  0
-0.126105 0.00196939  0
-0.127151 -0.0144267  0
-0.124235 -0.0343129  0
-0.113146 -0.0623431  0
-0.088908 -0.101204  0
-0.0538202 -0.142934  0
-0.016939 -0.179534  0
-0.000675036 -0.179535  0
0.00305364 -0.20564  0
0.0198372 -0.230168  0
0.0456535 -0.236839  0
0.0715997 -0.213175  0
0.0819702 -0.146876  0
0.0726851 -0.0951706  0
0.0793726 -0.0965723  0
0.111272 -0.0757386  0
0.138999 -0.0453602  0
0.155018 -0.0221221  0
0.162564 -0.00293055  0
0.163349 0.0155919  0
0.157888 0.0339636  0
0.14647 0.0508616  0
0.129752 0.0643084  0
0.109076 0.0727064  0
0.0867732 0.0755452  0
0.0661003 0.0771015  0
0.0495834 0.0921494  0
0.0370461 0.141328  0
0.0249426 0.227818  0
0.00917058 0.306277  0
-0.00604043 0.103522  0
-0.0200429 0.107298  0
-0.037706 0.10979  0
-0.0576211 0.107854  0
-0.0777907 0.101491  0
-0.0969071 0.0910549  0
-0.113983 0.0769618  0
-0.127845 0.0594447  0
-0.137418 0.0400928  0
-0.142586 0.0209067  0
-0.143595 0.00207313  0
-0.139479 -0.0186671  0
-0.126304 -0.0472284  0
-0.0966824 -0.0911992  0
-0.0468827 -0.147443  0
0.00610144 -0.185819  0
0.0371586 -0.205374  0
0.0304752 -0.163801  0
0.0157362 -0.210891  0
0.022027 -0.248519  0
0.033953 -0.256757  0
0.0397851 -0.225562  0
0.0357942 -0.141397  0
-0.00632208 -0.0497777  0
-0.013741 -0.142032  0
0.0521127 -0.129101  0
0.109387 -0.0780706  0
0.146914 -0.0440305  0
0.171558 -0.0142855  0
0.182309 0.0143358  0
0.180155 0.0417582  0
0.166653 0.0669109  0
0.143007 0.0875467  0
0.111291 0.100784  0
0.0753358 0.10465  0
0.0410708 0.101859  0
0.0156033 0.108301  0
0.00438809 0.147854  0
0.00420459 0.232505  0
0.00279113 0.317702  0
-0.00686589 0.115859  0
-0.0240256 0.125019  0
-0.0474276 0.132064  0
-0.0736767 0.130674  0
-0.0993508 0.123445  0
-0.1234 0.111197  0
-0.145295 0.0947214  0
-0.163127 0.0723096  0
-0.17389 0.0464961  0
-0.176479 0.0211922  0
-0.170455 -0.0042936  0
-0.153731 -0.0342031  0
-0.121816 -0.0778436  0
-0.0694397 -0.143639  0
-0.00458673 -0.210709  0
0.0283832 -0.209293  0
0.00472038 -0.211256  0
0.0292057 -0.0746366  0
0.0686101 -0.10534  0
0.0477779 -0.12751  0
0.0194277 -0.131091  0
-0.0228069 -0.112985  0
-0.0711607 -0.0684986  0
-0.0517723 -0.0923291  0
-0.010003 -0.172597  0
0.0263697 -0.201563  0
0.0822989 -0.119879  0
0.131146 -0.0896634  0
0.182006 -0.0452269  0
0.211917 0.00354358  0
0.217354 0.0481947  0
0.201197 0.0890619  0
0.164246 0.124921  0
0.110731 0.14757  0
0.0489986 0.154481  0
-0.00984218 0.144063  0
-0.0487823 0.129435  0
-0.0517311 0.139816  0
-0.0258256 0.213754  0
-0.00449275 0.315467  0
-0.0143774 0.136545  0
-0.0462318 0.152258  0
-0.0844586 0.16539  0
-0.122694 0.160769  0
-0.156055 0.151322  0
-0.186339 0.136588  0
-0.215521 0.119342  0
-0.240141 0.089075  0
-0.251312 0.0506  0
-0.245627 0.0129281  0
-0.222516 -0.0262272  0
-0.182352 -0.0702175  0
-0.130086 -0.127066  0
-0.0751359 -0.202797  0
-0.0483875 -0.243941  0
-0.0100021 -0.226617  0
0.0141916 -0.104647  0
0 0  0
0 0  0
0 0  0
0 0  0
0 0  0
0 0  0
-0.0050015 -0.0862987  0
0.0467204 -0.2054  0
0.103444 -0.238203  0
0.100476 -0.136734  0
0.135003 -0.156982  0
0.210312 -0.105146  0
0.266346 -0.0235505  0
0.28499 0.0501388  0
0.267219 0.119979  0
0.206404 0.190703  0
0.110748 0.229893  0
0.00437427 0.239199  0
-0.0893123 0.210808  0
-0.141292 0.152545  0
-0.122399 0.0996987  0
-0.0490108 0.153515  0
-0.0030712 0.307374  0
-0.0356142 0.185993  0
-0.103848 0.201826  0
-0.173271 0.222414  0
-0.23191 0.199562  0
-0.272245 0.185168  0
-0.307532 0.167254  0
-0.347086 0.156352  0
-0.38134 0.109878  0
-0.386505 0.04507  0
-0.359667 -0.0151267  0
-0.305853 -0.0761576  0
-0.238944 -0.128418  0
-0.18543 -0.175436  0
-0.165526 -0.229809  0
-0.106957 -0.236875  0
-0.0241937 -0.121971  0
0 0  0
0 0  0
0 0  0
0 0  0
0 0  0
0 0  0
0 0  0
0 0  0
0.0517219 -0.119101  0
0.0512257 -0.119101  0
0.125378 -0.164255  0
0.251748 -0.194743  0
0.288409 -0.180155  0
0.351377 -0.0686093  0
0.385567 0.0412989  0
0.379495 0.151599  0
0.306483 0.291847  0
0.153735 0.376091  0
-0.0301436 0.382192  0
-0.167934 0.298231  0
-0.219995 0.168102  0
-0.168792 0.0129872  0
-0.0345117 0.0315002  0
0.0220533 0.326092  0
-0.0491699 0.270509  0
-0.151137 0.286979  0
-0.249388 0.304407  0
-0.313868 0.240161  0
-0.348409 0.218919  0
-0.385908 0.205762  0
-0.449435 0.220397  0
-0.49983 0.129686  0
-0.4911 0.0206342  0
-0.443014 -0.0666763  0
-0.375162 -0.147333  0
-0.337815 -0.162292  0
-0.234436 -0.178816  0
-0.148291 -0.114905  0
-0.082763 -0.114905  0
0 0  0
0 0  0
0 0  0
0 0  0
0 0  0
0 0  0
0 0  0
0 0  0
0 0  0
0 0  0
0 0  0
0.125874 -0.0973715  0
0.320348 -0.205913  0
0.388948 -0.217082  0
0.406838 -0.113072  0
0.43273 0.025148  0
0.43232 0.173701  0
0.375236 0.399312  0
0.185136 0.610944  0
-0.0443585 0.560183  0
-0.154664 0.367806  0
-0.170265 0.165659  0
-0.158256 -0.0483099  0
-0.152885 -0.0473815  0
-0.0764425 0.150382  0
-0.0592186 0.159839  0
-0.166228 0.169888  0
-0.209093 0.17493  0
-0.256155 0.129593  0
-0.332688 0.117217  0
-0.399661 0.113873  0
-0.438397 0.200106  0
-0.434708 0.138272  0
-0.434381 0.0024609  0
-0.427159 -0.104342  0
-0.420264 -0.184944  0
-0.37904 -0.173618  0
-0.168908 -0.081146  0
0 0  0
0 0  0
0 0  0
0 0  0
0 0  0
0 0  0
0 0  0
0 0  0
0 0  0
0 0  0
0 0  0
0 0  0
0 0  0
0 0  0
0.194474 -0.108541  0
0.345888 -0.108541  0
0.289724 -0.0654806  0
0.276192 0.00857224  0
0.216901 0.0910575  0
0.090107 0.223991  0
0.0850032 0.376186  0
0.136805 0.324125  0
0.0899503 0.195023  0
0.0515981 0.0795102  0
-0.0550549 -0.0268404  0
-0.156035 -0.0236907  0
-0.0764425 -0.0236907  0
0 0  0
0 0  0
0 0  0
0 0  0
0 0  0
0 0  0
-0.217354 0.0691359  0
-0.366639 0.0691359  0
-0.309627 0.0010671  0
-0.33362 -0.0556184  0
-0.38341 -0.0924722  0
-0.210132 -0.0924722  0
0 0  0
0 0  0
0 0  0
0 0  0
0 0  0
0 0  0
0 0  0
0 0  0
0 0  0
0 0  0
0 0  0
0 0  0
0 0  0
0 0  0
0 0  0
0 0  0
0 0  0
0 0  0
0 0  0
0 0  0
0 0  0
0 0  0
0 0  0
0 0  0
0 0  0
0 0  0
0 0  0
0 0  0
0 0  0
0 0  0
0 0  0
0 0  0
0 0  0
0 0  0
0 0  0
0 0  0
0 0  0
0 0  0
0 0  0
0 0  0
0 0  0
0 0  0
0 0  0
0 0  0
0 0  0
0 0  0
0 0  0
0 0  0
0 0  0
0 0  0
0 0  0
0 0  0
0 0  0
0 0  0
0 0  0
0 0  0
0 0  0
0 0  0
0 0  0
0 0  0
0 0  0
0 0  0
0 0  0
0 0  0
0 0  0
0 0  0
0 0  0
0 0  0
0 0  0
0 0  0
0 0  0
0 0  0
0 0  0
0 0  0
0 0  0
0 0  0
0 0  0
0 0  0
0 0  0
0 0  0
0 0  0
0 0  0
0 0  0
0 0  0
0 0  0
0 0  0
0 0  0
0 0  0
0 0  0
0 0  0
0 0  0
0 0  0
0 0  0
0 0  0
0 0  0
0 0  0
0 0  0
0 0  0
0 0  0
0 0  0
0 0  0
0 0  0
0 0  0
0 0  0
0 0  0
0 0  0
0 0  0
0 0  0
0 0  0
0 0  0
0 0  0
0 0  0
0 0  0
0 0  0
0 0  0
0 0  0
0 0  0
0 0  0
0 0  0
0 0  0
0 0  0
0 0  0
0 0  0
0 0  0
0 0  0
0 0  0
0 0  0
0 0  0
0 0  0
0 0  0
0 0  0
0 0  0
0 0  0
0 0  0
0 0  0
0 0  0
0 0  0
0 0  0
0 0  0
0 0  0
0 0  0
0 0  0
0 0  0
0 0  0
0 0  0
0 0  0
0 0  0
0 0  0
0 0  0
0 0  0
0 0  0
0 0  0
0 0  0
0 0  0
0 0  0
0 0  0
0 0  0
0 0  0
0 0  0
0 0  0
0 0  0
0 0  0
0 0  0
0 0  0
0 0  0
0 0  0
0 0  0
0 0  0
0 0  0
0 0  0
0 0  0
0 0  0
0 0  0
0 0  0
0 0  0
0 0  0
0 0  0
0 0  0
0 0  0
0 0  0
0 0  0
0 0  0
0 0  0
0 0  0
0 0  0
0 0  0
0 0  0
0 0  0
0 0  0
0 0  0
0 0  0
0 0  0
0 0  0
0 0  0
0 0  0
0 0  0
0 0  0
0 0  0
0 0  0
0 0  0
0 0  0
0 0  0
0 0  0
0 0  0
0 0  0
0 0  0
0 0  0
0 0  0
0 0  0
0 0  0
0 0  0
0 0  0
0 0  0
0 0  0
0 0  0
0 0  0
0 0  0
0 0  0
0 0  0
0 0  0
0 0  0
0 0  0
0 0  0
0 0  0
0 0  0
0 0  0
0 0  0
0 0  0
0 0  0
0 0  0
0 0  0
0 0  0
0 0  0
0 0  0
0 0  0
0 0  0
0 0  0
0 0  0
0 0  0
0 0  0
0 0  0
0 0  0
0 0  0
0 0  0
0 0  0
0 0  0
0 0  0
0 0  0
0 0  0
0 0  0
0 0  0
0 0  0
0 0  0
0 0  0
0 0  0
0 0  0
0 0  0
0 0  0
0 0  0
0 0  0
0 0  0
0 0  0
0 0  0
0 0  0
0 0  0
0 0  0
0 0  0
0 0  0
0 0  0
0 0  0
0 0  0
0 0  0
0 0  0
0 0  0
0 0  0
0 0  0
0 0  0
0 0  0
0 0  0
0 0  0
0 0  0
0 0  0
0 0  0
0 0  0
0 0  0
0 0  0
0 0  0
0 0  0
0 0  0
0 0  0
0 0  0
0 0  0
0 0  0
0 0  0
0 0  0
0 0  0
0 0  0
0 0  0
0 0  0
0 0  0
0 0  0
0 0  0
0 0  0
0 0  0
0 0  0
0 0  0
0 0  0
0 0  0
0 0  0
0 0  0
0 0  0
0 0  0
0 0  0
0 0  0
0 0  0
0 0  0
0 0  0
0 0  0
0 0  0
0 0  0
0 0  0
0 0  0
0 0  0
0 0  0
0 0  0
0 0  0
0 0  0
0 0  0
0 0  0
0 0  0
0 0  0
0 0  0
0 0  0
0 0  0
0 0  0
0 0  0
0 0  0
0 0  0
0 0  0
0 0  0
0 0  0
0 0  0
0 0  0
0 0  0
0 0  0
0 0  0
0 0  0
0 0  0
0 0  0
0 0  0
0 0  0
0 0  0
0 0  0
0 0  0
0 0  0
0 0  0
0 0  0
0 0  0
0 0  0
0 0  0
0 0  0
0 0  0
0 0  0
0 0  0
0 0  0
0 0  0
0 0  0
0 0  0
0 0  0
0 0  0
0 0  0
0 0  0
0 0  0
0 0  0
0 0  0
0 0  0
0 0  0
0 0  0
0 0  0
0 0  0
0 0  0
0 0  0
0 0  0
0 0  0
0 0  0
0 0  0
0 0  0
0 0  0
0 0  0
0 0  0
0 0  0
0 0  0
0 0  0
0 0  0
0 0  0
0 0  0
0 0  0
0 0  0
0 0  0
0 0  0
0 0  0
0 0  0
0 0  0
0 0  0
0 0  0
0 0  0
0 0  0
0 0  0
0 0  0
0 0  0
0 0  0
0 0  0
0 0  0
0 0  0
0 0  0
0 0  0
0 0  0
0 0  0
0 0  0
0 0  0
0 0  0
0 0  0
0 0  0
0 0  0
0 0  0
0 0  0
0 0  0
0 0  0
0 0  0
0 0  0
0 0  0
0 0  0
0 0  0
0 0  0
0 0  0
0 0  0
0 0  0
0 0  0
0 0  0
0 0  0
0 0  0
0 0  0
0 0  0
0 0  0
0 0  0
0 0  0
0 0  0
0 0  0
0 0  0
0 0  0
0 0  0
0 0  0
0 0  0
0 0  0
0 0  0
0 0  0
0 0  0
0 0  0
0 0  0
0 0  0
0 0  0
0 0  0
0 0  0
0 0  0
0 0  0
0 0  0
0 0  0
0 0  0
0 0  0
0 0  0
0 0  0
0 0  0
0 0  0
0 0  0
0 0  0
0 0  0
0 0  0
0 0  0
0 0  0
0 0  0
0 0  0
0 0  0
0 0  0
0 0  0
0 0  0
0 0  0
0 0  0
0 0  0
0 0  0
0 0  0
0 0  0
0 0  0
0 0  0
0 0  0
0 0  0
0 0  0
0 0  0
0 0  0
0 0  0
0 0  0
0 0  0
0 0  0
0 0  0
0 0  0
0 0  0
0 0  0
0 0  0
0 0  0

SCALARS pressure double 1
LOOKUP_TABLE default
3.24208
3.23939
3.23391
3.22569
3.21477
3.20126
3.18528
3.16703
3.14677
3.12485
3.10172
3.07791
3.05404
3.03081
3.00896
2.98922
2.97227
2.95873
2.94913
2.94376
2.9428
2.94626
2.95399
2.96569
2.98092
2.99911
3.01958
3.04161
3.06448
3.0875
3.11004
3.13157
3.15167
3.17001
3.18636
3.20058
3.2126
3.22233
3.22958
3.23374
3.04079
3.03809
3.03258
3.0243
3.0133
2.99965
2.98348
2.96497
2.94436
2.92199
2.8983
2.87384
2.84924
2.82523
2.80258
2.78207
2.76445
2.75036
2.74038
2.73481
2.73383
2.73745
2.74552
2.75772
2.77358
2.79248
2.81371
2.83649
2.86006
2.8837
2.90676
2.92872
2.94913
2.96768
2.98417
2.99845
3.01049
3.02022
3.02746
3.03163
2.83808
2.83535
2.82979
2.82142
2.81027
2.79639
2.77986
2.76084
2.73954
2.71628
2.6915
2.66572
2.63964
2.61403
2.58974
2.56768
2.54868
2.53348
2.52271
2.51674
2.51573
2.5197
2.52847
2.54171
2.55886
2.57924
2.60202
2.62634
2.65135
2.67626
2.7004
2.7232
2.74424
2.76322
2.77995
2.79434
2.80638
2.81605
2.82322
2.82733
2.63397
2.63121
2.6256
2.61712
2.60578
2.59158
2.57456
2.55482
2.53252
2.50794
2.48149
2.45372
2.42533
2.39722
2.37037
2.34584
2.32466
2.30771
2.29572
2.28913
2.28809
2.29261
2.30249
2.31735
2.33657
2.35929
2.38454
2.41128
2.43853
2.4654
2.49117
2.51524
2.53721
2.55679
2.57385
2.58835
2.60034
2.60988
2.61689
2.62089
2.42846
2.42569
2.42003
2.41146
2.39993
2.38538
2.36779
2.34716
2.32359
2.29729
2.2686
2.23809
2.2065
2.17483
2.14429
2.1162
2.09187
2.07243
2.05872
2.05129
2.05022
2.05551
2.06697
2.08416
2.10636
2.13248
2.16128
2.19147
2.22186
2.25144
2.27942
2.30519
2.32836
2.34867
2.36608
2.38062
2.39245
2.40173
2.40847
2.41229
2.22154
2.21877
2.21312
2.20452
2.19285
2.178
2.15983
2.13823
2.11319
2.08478
2.05331
2.01925
1.98342
1.94696
1.91132
1.87824
1.84953
1.8267
1.81072
1.80222
1.80114
1.80745
1.821
1.84139
1.86774
1.89861
1.93231
1.96716
2.00172
2.03484
2.06565
2.09353
2.11812
2.13925
2.15693
2.17135
2.18279
2.19157
2.19786
2.20141
2.01317
2.01045
2.00488
1.99636
1.9847
1.96967
1.95103
1.92849
1.90187
1.87109
1.83629
1.79786
1.75661
1.7138
1.67122
1.63123
1.59647
1.56915
1.55033
1.54055
1.53951
1.54707
1.56326
1.5879
1.62
1.65745
1.69778
1.7388
1.77874
1.81629
1.85054
1.88091
1.90709
1.92901
1.9468
1.96078
1.97144
1.97935
1.9849
1.98802
1.80325
1.80064
1.79528
1.78701
1.77558
1.76065
1.7418
1.71853
1.69041
1.6571
1.61852
1.5749
1.52691
1.47584
1.42383
1.3741
1.33082
1.29771
1.27567
1.26457
1.26362
1.27253
1.29178
1.32198
1.36218
1.40883
1.45813
1.50714
1.55381
1.59672
1.63501
1.66818
1.69604
1.71862
1.73618
1.74923
1.75851
1.76493
1.76927
1.77174
1.59163
1.58921
1.58421
1.57645
1.56559
1.55119
1.5326
1.50906
1.47975
1.444
1.40138
1.35183
1.29573
1.23416
1.16929
1.10541
1.04956
1.00949
0.984448
0.972414
0.971616
0.981565
1.00378
1.04097
1.09314
1.15298
1.21426
1.2734
1.32823
1.37741
1.42023
1.45641
1.48592
1.50891
1.52576
1.53714
1.54412
1.54813
1.55055
1.55199
1.37807
1.37592
1.37148
1.36452
1.35469
1.34144
1.32388
1.30087
1.27107
1.2333
1.18668
1.13075
1.06543
0.991048
0.908902
0.823625
0.747156
0.700733
0.674585
0.662831
0.662187
0.671995
0.695596
0.740583
0.812197
0.891327
0.968116
1.03953
1.10385
1.16001
1.20764
1.24685
1.27785
1.30091
1.31641
1.32514
1.32853
1.32876
1.32817
1.328
1.16224
1.16046
1.15675
1.15091
1.14265
1.13138
1.11603
1.09488
1.06579
1.02687
0.97672
0.914477
0.839585
0.751119
0.647199
0.528778
0.410113
0.367306
0.345433
0.336332
0.335932
0.343213
0.362834
0.411252
0.520676
0.628194
0.723189
0.808397
0.883161
0.946564
0.998856
1.04082
1.07307
1.09582
1.10925
1.11411
1.11224
1.10688
1.10168
1.0988
0.943735
0.942364
0.939506
0.935002
0.928834
0.920612
0.909155
0.892002
0.865577
0.826958
0.774192
0.7062
0.622751
0.522317
0.395954
0.231039
-0.00747283
0.00826479
-3.18213e-05
-0.00346087
-0.00290653
-0.000322716
0.00199335
0.0171797
0.224635
0.372532
0.483911
0.583223
0.669157
0.739463
0.795464
0.839456
0.87267
0.894876
0.905518
0.905112
0.89609
0.883147
0.871057
0.862762
0.722133
0.721103
0.719029
0.715721
0.711924
0.707828
0.702638
0.693041
0.672291
0.636076
0.581818
0.508248
0.417737
0.314008
0.177137
0.00319241
0
0
0
0
0
0
0
0
-0.0176564
0.143026
0.250802
0.365413
0.464752
0.541057
0.598293
0.642798
0.676895
0.698851
0.705991
0.698574
0.680941
0.659181
0.636191
0.615481
0.49699
0.496025
0.494356
0.491171
0.489257
0.489811
0.493726
0.49816
0.487587
0.456652
0.401455
0.319446
0.217275
0.128747
-0.010658
0
0
0
0
0
0
0
0
0
0
-0.0394795
0.00105832
0.152545
0.271913
0.351858
0.405266
0.447285
0.482617
0.506236
0.50841
0.489753
0.464793
0.436212
0.396303
0.343688
0.266972
0.26601
0.263791
0.257761
0.256088
0.260018
0.273881
0.306336
0.311562
0.289158
0.233755
0.136391
-0.0113519
-0.0169153
0
0
0
0
0
0
0
0
0
0
0
0
0
-0.0343229
0.0960743
0.167752
0.207686
0.239946
0.274806
0.306932
0.298717
0.265245
0.237478
0.212701
0.15204
0.00991691
0.024466
0.0265694
0.0231373
0.00924633
0.00756784
0.0106629
0.0200779
0.122832
0.144536
0.132644
0.0872033
-0.014191
0
0
0
0
0
0
0
0
0
0
0
0
0
0
0
0
-0.0369416
-0.00888246
-0.00389095
0.00413982
0.0241862
0.0724472
0.0436014
0.0108146
-0.00341461
-0.00268386
-0.0143284
0
0
0
0
0
0
0
0
0.0103857
-1.90682e-05
-0.00336279
-0.0155116
0
0
0
0
0
0
0
0
0
0
0
0
0
0
0
0
0
0
0
0
0
0
0
0
0
0
0
0
0
0
0
0
0
0
0
0
0
0
0
0
0
0
0
0
0
0
0
0
0
0
0
0
0
0
0
0
0
0
0
0
0
0
0
0
0
0
0
0
0
0
0
0
0
0
0
0
0
0
0
0
0
0
0
0
0
0
0
0
0
0
0
0
0
0
0
0
0
0
0
0
0
0
0
0
0
0
0
0
0
0
0
0
0
0
0
0
0
0
0
0
0
0
0
0
0
0
0
0
0
0
0
0
0
0
0
0
0
0
0
0
0
0
0
0
0
0
0
0
0
0
0
0
0
0
0
0
0
0
0
0
0
0
0
0
0
0
0
0
0
0
0
0
0
0
0
0
0
0
0
0
0
0
0
0
0
0
0
0
0
0
0
0
0
0
0
0
0
0
0
0
0
0
0
0
0
0
0
0
0
0
0
0
0
0
0
0
0
0
0
0
0
0
0
0
0
0
0
0
0
0
0
0
0
0
0
0
0
0
0
0
0
0
0
0
0
0
0
0
0
0
0
0
0
0
0
0
0
0
0
0
0
0
0
0
0
0
0
0
0
0
0
0
0
0
0
0
0
0
0
0
0
0
0
0
0
0
0
0
0
0
0
0
0
0
0
0
0
0
0
0
0
0
0
0
0
0
0
0
0
0
0
0
0
0
0
0
0
0
0
0
0
0
0
0
0
0
0
0
0
0
0
0
0
0
0
0
0
0
0
0
0
0
0
0
0
0
0
0
0
0
0
0
0
0
0
0
0
0
0
0
0
0
0
0
0
0
0
0
0
0
0
0
0
0
0
0
0
0
0
0
0
0
0
0
0
0
0
0
0
0
0
0
0
0
0
0
0
0
0
0
0
0
0
0
0
0
0
0
0
0
0
0
0
0
0
0
0
0
0
0
0
0
0
0
0
0
0
0
0
0
0
0
0
0
0
0
0
0
0
0
0
0
0
0
0
0
0
0
0
0
0
0
0
0
0
0
0
0
0
0
0
0
0
0
0
0
0
0
0
0
0
0
0
0
0
0
0
0
0
0
0
0
0
0
0
0
0
0
0
0
0
0
0
0
0
0
0
0
0
0
0
0
0
0
0
0
0
0
0
0
0
0
0
0
0
0
0
0
0
0
0
0
0
0
0
0
0
0
0
0
0
0
0
0
0
0
0
0
0
0
0
0
0
0
0
0
0
0
0
SCALARS rhs double 1
LOOKUP_TABLE default
-5.24351
-5.18171
-5.17932
-5.17727
-5.1752
-5.17315
-5.17114
-5.16922
-5.16744
-5.16587
-5.16458
-5.16364
-5.16312
-5.16304
-5.16341
-5.16416
-5.16513
-5.16459
-5.16665
-5.16737
-5.16747
-5.16714
-5.16652
-5.16581
-5.16523
-5.16491
-5.16493
-5.16528
-5.16589
-5.1667
-5.16762
-5.16857
-5.16947
-5.1703
-5.17104
-5.17187
-5.1736
-5.17919
-5.19394
-5.22112
-0.181277
-0.122875
-0.121903
-0.121213
-0.120474
-0.119713
-0.11897
-0.118292
-0.117721
-0.117363
-0.117195
-0.117271
-0.117649
-0.118361
-0.119386
-0.120645
-0.12202
-0.12174
-0.123788
-0.124663
-0.124669
-0.124116
-0.123153
-0.122005
-0.120889
-0.119962
-0.119299
-0.118906
-0.118752
-0.118784
-0.118918
-0.11914
-0.119401
-0.119653
-0.119917
-0.120382
-0.121926
-0.12783
-0.144158
-0.173384
-0.177398
-0.121453
-0.120539
-0.119892
-0.119195
-0.118476
-0.117775
-0.117134
-0.116597
-0.1163
-0.116192
-0.116307
-0.116736
-0.11752
-0.118637
-0.120048
-0.121595
-0.121519
-0.123355
-0.124632
-0.124625
-0.123956
-0.122801
-0.121435
-0.120127
-0.119054
-0.118288
-0.117822
-0.117611
-0.117594
-0.117646
-0.117842
-0.118077
-0.118317
-0.118591
-0.11908
-0.120597
-0.126237
-0.141723
-0.16931
-0.173506
-0.120428
-0.119574
-0.118973
-0.118321
-0.117648
-0.11699
-0.116388
-0.115893
-0.11564
-0.115627
-0.115797
-0.116308
-0.117204
-0.11851
-0.120191
-0.12208
-0.122513
-0.123757
-0.12589
-0.125884
-0.125004
-0.123488
-0.12171
-0.120041
-0.118703
-0.117761
-0.117179
-0.116886
-0.116803
-0.116727
-0.116909
-0.117109
-0.117331
-0.117615
-0.118145
-0.119689
-0.12516
-0.139871
-0.165908
-0.169287
-0.119459
-0.118682
-0.118141
-0.117551
-0.116937
-0.116335
-0.115786
-0.115343
-0.115107
-0.115258
-0.115515
-0.116153
-0.117256
-0.118903
-0.121086
-0.123637
-0.125141
-0.125138
-0.128914
-0.128952
-0.127703
-0.125505
-0.122939
-0.120588
-0.118766
-0.11752
-0.116756
-0.116346
-0.116102
-0.115985
-0.116096
-0.116242
-0.116425
-0.116696
-0.117253
-0.118857
-0.124271
-0.138374
-0.163096
-0.164821
-0.118582
-0.117905
-0.117449
-0.116942
-0.116406
-0.115872
-0.115388
-0.115005
-0.114761
-0.115129
-0.115502
-0.116331
-0.11778
-0.120021
-0.12314
-0.126921
-0.130408
-0.128089
-0.134832
-0.135078
-0.133215
-0.129712
-0.125633
-0.122013
-0.11934
-0.117609
-0.116591
-0.116045
-0.115555
-0.115461
-0.115486
-0.115556
-0.11566
-0.115862
-0.116372
-0.117973
-0.123364
-0.137052
-0.16079
-0.160176
-0.117835
-0.117299
-0.116966
-0.116576
-0.11614
-0.11569
-0.115272
-0.114942
-0.114628
-0.11526
-0.115754
-0.116834
-0.118793
-0.121986
-0.126666
-0.132477
-0.137988
-0.135078
-0.143314
-0.145553
-0.14277
-0.136627
-0.129728
-0.124035
-0.120182
-0.117879
-0.116619
-0.115991
-0.115212
-0.115254
-0.115214
-0.115185
-0.115154
-0.115175
-0.115431
-0.116715
-0.121827
-0.135238
-0.158491
-0.155395
-0.117247
-0.11693
-0.116792
-0.116571
-0.116269
-0.115912
-0.115545
-0.115233
-0.114956
-0.115404
-0.11617
-0.117468
-0.119935
-0.124106
-0.130385
-0.138227
-0.145079
-0.142815
-0.152564
-0.159114
-0.15491
-0.142703
-0.130838
-0.123293
-0.119496
-0.117515
-0.116489
-0.116051
-0.115283
-0.11555
-0.115518
-0.115396
-0.115163
-0.114815
-0.11436
-0.114411
-0.118174
-0.131181
-0.154879
-0.150454
-0.116831
-0.116893
-0.117081
-0.117121
-0.117002
-0.116747
-0.116386
-0.11599
-0.115684
-0.11557
-0.116476
-0.117599
-0.119652
-0.122664
-0.127145
-0.133774
-0.138183
-0.140877
-0.155194
-0.167462
-0.159174
-0.131798
-0.111843
-0.1085
-0.112029
-0.114293
-0.115307
-0.11554
-0.116236
-0.116671
-0.116874
-0.116763
-0.116319
-0.115358
-0.113259
-0.109749
-0.109012
-0.120812
-0.147059
-0.1452
-0.1166
-0.117389
-0.11815
-0.118602
-0.118759
-0.118639
-0.11821
-0.117524
-0.11678
-0.115891
-0.116316
-0.116028
-0.114559
-0.110413
-0.104831
-0.11289
-0.107873
-0.12073
-0.14368
-0.158112
-0.13449
-0.0791603
-0.0579435
-0.0777419
-0.0977294
-0.106503
-0.112388
-0.115282
-0.117661
-0.119374
-0.120375
-0.120653
-0.120291
-0.118657
-0.113189
-0.100568
-0.087348
-0.0960197
-0.130126
-0.139377
-0.116714
-0.118992
-0.120782
-0.12195
-0.122643
-0.122918
-0.122434
-0.121094
-0.11931
-0.117437
-0.116508
-0.113448
-0.10684
-0.0985818
-0.0747296
-0.112243
-0.113115
-0.0850392
-0.1116
-0.11947
-0.0573465
0.0207914
-0.0912083
-0.16069
-0.127329
-0.105026
-0.114028
-0.119258
-0.121814
-0.126064
-0.129053
-0.130904
-0.131999
-0.130891
-0.119661
-0.0864277
-0.0444545
-0.0477451
-0.100697
-0.13313
-0.117854
-0.123375
-0.127201
-0.130028
-0.132292
-0.134529
-0.134836
-0.1322
-0.128182
-0.126569
-0.12736
-0.12748
-0.133334
-0.149245
-0.0867953
1.59627
5.07282
6.7018
6.61732
6.58394
6.47053