# vtk DataFile Version 4.0
Nusif Fluid VTK output
ASCII
DATASET STRUCTURED_POINTS
DIMENSIONS 40 30 1
ORIGIN 0 0 0 
SPACING 0.2 0.2 1
POINT_DATA 1200 

VECTORS velocity double
-0.000905504 0.000126036  0
-0.00258899 6.35016e-05  0
-0.00401855 -6.07006e-05  0
-0.00514022 -0.000239998  0
-0.00585367 -0.000464566  0
-0.00608113 -0.000721651  0
-0.00577259 -0.0009963  0
-0.00490884 -0.00127265  0
-0.00350191 -0.00153539  0
-0.00159223 -0.00177142  0
0.000757293 -0.00197145  0
0.00346973 -0.00213076  0
0.00646341 -0.00224938  0
0.00966067 -0.00233132  0
0.0129937 -0.00238246  0
0.0164052 -0.00240762  0
0.0198441 -0.002408  0
0.0232569 -0.00238012  0
0.0265811 -0.00231861  0
0.0297472 -0.00222158  0
0.0326885 -0.00209391  0
0.0353537 -0.00194608  0
0.0377175 -0.00179343  0
0.039787 -0.00165331  0
0.0416016 -0.00154015  0
0.0432216 -0.00146065  0
0.0447116 -0.00141223  0
0.0461238 -0.00138515  0
0.0474881 -0.00136668  0
0.0488105 -0.00134545  0
0.0500786 -0.00131453  0
0.0512713 -0.0012721  0
0.0523656 -0.0012181  0
0.0533257 -0.00113947  0
0.05403 -0.000963895  0
0.0540493 -0.00045556  0
0.0522004 0.000903253  0
0.0461456 0.00374969  0
0.0330473 0.00794626  0
0.0121999 0.0114986  0
-0.000968109 0.00050688  0
-0.00277574 0.00031432  0
-0.00432183 -6.6532e-05  0
-0.00554368 -0.000615907  0
-0.00633478 -0.00130401  0
-0.0066123 -0.0020918  0
-0.00632302 -0.00293327  0
-0.00544734 -0.00377924  0
-0.0040001 -0.00458208  0
-0.00202768 -0.00530107  0
0.000398659 -0.00590728  0
0.00319245 -0.00638642  0
0.00626337 -0.00673956  0
0.00952804 -0.00698071  0
0.0129178 -0.00713034  0
0.0163803 -0.00720563  0
0.0198724 -0.00721079  0
0.0233467 -0.00713277  0
0.0267395 -0.0069505  0
0.0299716 -0.00665512  0
0.0329639 -0.00626163  0
0.0356541 -0.00580238  0
0.0380098 -0.00532669  0
0.0400397 -0.00489156  0
0.0417936 -0.00454488  0
0.043349 -0.00430827  0
0.0447866 -0.00417197  0
0.0461689 -0.00410258  0
0.0475273 -0.00405762  0
0.0488619 -0.00399988  0
0.0501495 -0.00390693  0
0.0513564 -0.00377287  0
0.0524465 -0.00359757  0
0.0533702 -0.00334164  0
0.0539927 -0.00278819  0
0.0538749 -0.00123363  0
0.0518443 0.00285877  0
0.0456292 0.0113613  0
0.0325353 0.0238237  0
0.0119768 0.0343237  0
-0.00109837 0.00115074  0
-0.00316272 0.000816682  0
-0.00494858 0.000157777  0
-0.00637715 -0.000793104  0
-0.00732882 -0.00198538  0
-0.00770962 -0.00335149  0
-0.00745925 -0.00481067  0
-0.00655682 -0.00627548  0
-0.00502286 -0.00766072  0
-0.00291631 -0.0088933  0
-0.000326581 -0.00992132  0
0.00263895 -0.0107204  0
0.0058704 -0.0112952  0
0.00927107 -0.0116764  0
0.0127703 -0.0119086  0
0.0163274 -0.0120311  0
0.0199207 -0.0120544  0
0.0235203 -0.0119465  0
0.0270595 -0.0116522  0
0.0304359 -0.0111456  0
0.0335414 -0.0104533  0
0.0362879 -0.00963263  0
0.0386264 -0.0087768  0
0.0405666 -0.00799892  0
0.0421832 -0.00739676  0
0.0435935 -0.00701205  0
0.0449166 -0.0068203  0
0.0462375 -0.00675012  0
0.04759 -0.00671491  0
0.0489595 -0.00664176  0
0.0502989 -0.00648831  0
0.0515478 -0.00624432  0
0.052645 -0.00591112  0
0.053519 -0.0054243  0
0.054017 -0.00442502  0
0.0536939 -0.00175511  0
0.0514076 0.00509771  0
0.0449901 0.0191555  0
0.031919 0.0395952  0
0.0117147 0.0567157  0
-0.00130274 0.0021377  0
-0.00376951 0.00164621  0
-0.0059319 0.000676466  0
-0.00768681 -0.000726484  0
-0.008893 -0.00249044  0
-0.00943735 -0.00451569  0
-0.00924672 -0.00668003  0
-0.00829708 -0.00884888  0
-0.00661748 -0.0108897  0
-0.00428741 -0.012688  0
-0.0014268 -0.0141623  0
0.00182066 -0.0152761  0
0.00530965 -0.0160422  0
0.00891794 -0.0165194  0
0.0125697 -0.0167965  0
0.0162475 -0.0169573  0
0.0199767 -0.0170294  0
0.0237689 -0.0169416  0
0.027553 -0.0165587  0
0.0311772 -0.0158182  0
0.0344781 -0.0147662  0
0.0373223 -0.0134904  0
0.0396279 -0.0121442  0
0.0414035 -0.0109296  0
0.042769 -0.0100317  0
0.0439193 -0.00952276  0
0.0450458 -0.00934577  0
0.0462729 -0.00936053  0
0.0476343 -0.00940756  0
0.0490858 -0.00936049  0
0.0505363 -0.00915113  0
0.0518813 -0.00876779  0
0.0530232 -0.00821993  0
0.0538647 -0.00742488  0
0.054238 -0.00589007  0
0.0537 -0.00202363  0
0.0511484 0.00760924  0
0.0445193 0.0270957  0
0.0314403 0.0552101  0
0.0115088 0.0786419  0
-0.00159064 0.00362642  0
-0.00462514 0.00295646  0
-0.00732188 0.00163092  0
-0.00954432 -0.000296284  0
-0.0111181 -0.00273158  0
-0.0118992 -0.00553823  0
-0.0117924 -0.00854225  0
-0.0107665 -0.0115477  0
-0.00886183 -0.0143589  0
-0.00618822 -0.0168045  0
-0.00291266 -0.0187622  0
0.000763105 -0.020178  0
0.00463443 -0.0210777  0
0.00853318 -0.0215667  0
0.0123709 -0.0218132  0
0.0161712 -0.0219923  0
0.0200529 -0.022178  0
0.024116 -0.0222208  0
0.0282761 -0.0217961  0
0.0322746 -0.020776  0
0.0358564 -0.0192643  0
0.0388338 -0.0173879  0
0.0410742 -0.015368  0
0.0425688 -0.0135526  0
0.0435114 -0.012295  0
0.0442364 -0.0117146  0
0.0450598 -0.0116852  0
0.0461678 -0.011939  0
0.0475856 -0.0121925  0
0.0492113 -0.0122382  0
0.0508777 -0.0119771  0
0.0524107 -0.0114074  0
0.0536644 -0.0105643  0
0.0545168 -0.00936345  0
0.0547954 -0.00719284  0
0.0540693 -0.00204661  0
0.0512723 0.0103908  0
0.044418 0.0352075  0
0.0312457 0.0707596  0
0.011412 0.100268  0
-0.00197363 0.0057964  0
-0.00576643 0.00492481  0
-0.00918538 0.0031897  0
-0.0120497 0.000644741  0
-0.0141352 -0.00259862  0
-0.0152482 -0.00636067  0
-0.0152564 -0.0104003  0
-0.0141137 -0.0144384  0
-0.0118738 -0.0181911  0
-0.00868944 -0.0214069  0
-0.00479615 -0.0239035  0
-0.000482812 -0.025599  0
0.00395374 -0.0265361  0
0.00827084 -0.0268941  0
0.012356 -0.0269773  0
0.0162937 -0.0271339  0
0.0203553 -0.0275464  0
0.0247966 -0.0279231  0
0.0294828 -0.0275062  0
0.0339173 -0.0260652  0
0.0377296 -0.0239362  0
0.0407639 -0.0212956  0
0.0428418 -0.0183478  0
0.0438807 -0.0156771  0
0.044176 -0.013981  0
0.0442852 -0.0134371  0
0.0447094 -0.0137864  0
0.0457211 -0.0145351  0
0.0473188 -0.0151909  0
0.0492949 -0.015422  0
0.0513536 -0.0151  0
0.0532157 -0.014262  0
0.0546754 -0.0130062  0
0.0555956 -0.0112781  0
0.0558199 -0.00836556  0
0.0549453 -0.0018579  0
0.0519307 0.0134288  0
0.0448231 0.0435464  0
0.0314265 0.0864049  0
0.0114552 0.121843  0
-0.00246324 0.00885009  0
-0.00723346 0.00775936  0
-0.011603 0.00556119  0
-0.0153335 0.00228706  0
-0.0181243 -0.00194421  0
-0.0197015 -0.00690276  0
-0.0198705 -0.0122573  0
-0.0185572 -0.0176119  0
-0.0158298 -0.0225576  0
-0.011898 -0.0267274  0
-0.00709222 -0.0298511  0
-0.00182062 -0.0318036  0
0.00349789 -0.0326521  0
0.00853064 -0.0326919  0
0.013142 -0.0324384  0
0.0174637 -0.0324934  0
0.0218807 -0.0332258  0
0.0268405 -0.0342046  0
0.0320955 -0.0337255  0
0.0365923 -0.0313368  0
0.039901 -0.0283457  0
0.0423921 -0.0249726  0
0.0439766 -0.0208959  0
0.044313 -0.0170688  0
0.043799 -0.0149371  0
0.0432758 -0.0146355  0
0.0434056 -0.0157125  0
0.0445418 -0.0173291  0
0.0466282 -0.0186548  0
0.0492886 -0.0191698  0
0.0520309 -0.0187295  0
0.0544276 -0.0174685  0
0.0562057 -0.0156157  0
0.0572368 -0.0131987  0
0.0574206 -0.00943232  0
0.0564153 -0.00149071  0
0.0531977 0.0167142  0
0.0457915 0.0521951  0
0.0320133 0.102352  0
0.0116465 0.143655  0
-0.00306597 0.0130079  0
-0.00905859 0.0117045  0
-0.0146611 0.00901183  0
-0.0195587 0.00488958  0
-0.0233287 -0.000559643  0
-0.0255652 -0.00704579  0
-0.0259701 -0.014111  0
-0.0244193 -0.0211913  0
-0.0209945 -0.0276977  0
-0.0159795 -0.0330994  0
-0.00982252 -0.0370054  0
-0.00306477 -0.0392402  0
0.00377759 -0.0399359  0
0.0103712 -0.0395921  0
0.016634 -0.0389685  0
0.0225168 -0.0387225  0
0.0278754 -0.0393257  0
0.0332741 -0.041016  0
0.0386538 -0.0401013  0
0.0414975 -0.034854  0
0.0413972 -0.0305897  0
0.0410824 -0.0274586  0
0.0411393 -0.0226069  0
0.0403722 -0.0174851  0
0.0392712 -0.0154663  0
0.0389238 -0.0157985  0
0.0396732 -0.0179934  0
0.0417948 -0.0208726  0
0.0451496 -0.0231207  0
0.0491533 -0.0239379  0
0.0530657 -0.0231873  0
0.0562847 -0.0211986  0
0.0584869 -0.018439  0
0.0596035 -0.0150965  0
0.0596607 -0.0103496  0
0.0584458 -0.000927339  0
0.0549749 0.0202652  0
0.0472025 0.0612485  0
0.0329046 0.1188  0
0.0119447 0.165959  0
-0.00377313 0.0184878  0
-0.0112457 0.0170454  0
-0.0184391 0.0138969  0
-0.0249291 0.0088233  0
-0.0300868 0.00186659  0
-0.0332846 -0.00660409  0
-0.0340542 -0.0159431  0
-0.0321894 -0.0253381  0
-0.0277845 -0.0339422  0
-0.0212105 -0.0410036  0
-0.0130306 -0.045996  0
-0.00385038 -0.0487433  0
0.00593076 -0.0496099  0
0.0163802 -0.0495127  0
0.027729 -0.0492091  0
0.038699 -0.0478825  0
0.0457667 -0.0451385  0
0.0499702 -0.0473512  0
0.0543659 -0.0460869  0
0.0513939 -0.0312854  0
0.0397862 -0.0249955  0
0.0304687 -0.0259662  0
0.026487 -0.0227226  0
0.0236969 -0.0163639  0
0.0228876 -0.0172318  0
0.0256455 -0.0190006  0
0.0300301 -0.0224845  0
0.03565 -0.0266843  0
0.0421881 -0.029765  0
0.0488848 -0.0305586  0
0.0548049 -0.028965  0
0.0592391 -0.0256411  0
0.0619056 -0.021433  0
0.0628983 -0.01678  0
0.0624848 -0.0108785  0
0.0607136 1.89155e-05  0
0.0567508 0.0241839  0
0.0485135 0.0707706  0
0.0336961 0.135825  0
0.0122013 0.188821  0
-0.00454909 0.0254635  0
-0.013754 0.0241186  0
-0.0230231 0.0207223  0
-0.0317514 0.0146533  0
-0.0389404 0.00582144  0
-0.0435861 -0.00527615  0
-0.0449519 -0.0176949  0
-0.0427083 -0.0302526  0
-0.0369577 -0.0417394  0
-0.0281479 -0.0511444  0
-0.0168611 -0.0578741  0
-0.00350518 -0.0619514  0
0.0122018 -0.0644377  0
0.0316164 -0.0670943  0
0.0557142 -0.069617  0
0.0790977 -0.0643688  0
0.0860479 -0.0452092  0
0.0820857 -0.05006  0
0.0868349 -0.0550611  0
0.0719558 -0.00699796  0
0.0311528 0.000591028  0
-0.000236258 -0.0133819  0
-0.0125523 -0.0215486  0
-0.0189444 -0.0109015  0
-0.0187652 -0.0246133  0
-0.00658162 -0.0291122  0
0.00781046 -0.0337033  0
0.0225308 -0.0383616  0
0.0364622 -0.0411151  0
0.0485882 -0.0405909  0
0.0579941 -0.0368196  0
0.0641562 -0.0309447  0
0.0671125 -0.0243149  0
0.0673331 -0.0176745  0
0.0655051 -0.010306  0
0.0621824 0.00197693  0
0.0570245 0.0287833  0
0.0482222 0.0806477  0
0.0333648 0.153059  0
0.0120711 0.211812  0
-0.0053593 0.0340382  0
-0.0166057 0.0333828  0
-0.0287285 0.0302926  0
-0.0407747 0.0233006  0
-0.0510698 0.0121021  0
-0.0579874 -0.0025488  0
-0.0603938 -0.019204  0
-0.0577901 -0.0361435  0
-0.0502701 -0.0516703  0
-0.0382587 -0.064584  0
-0.0220343 -0.0744927  0
-0.0013017 -0.0819661  0
0.0255188 -0.0894925  0
0.0615803 -0.100055  0
0.10857 -0.110281  0
0.154964 -0.0960159  0
0.151404 -0.0194834  0
0.120014 -0.0429642  0
0.136087 -0.0855099  0
0.102877 0.0690081  0
0.0174429 0.0482934  0
-0.053222 0.0390738  0
-0.0871228 -0.0296905  0
-0.0942574 0.00822404  0
-0.0944112 -0.0463091  0
-0.0651283 -0.0514292  0
-0.0344922 -0.0589629  0
-0.00223498 -0.0626303  0
0.0264236 -0.0619892  0
0.0488924 -0.0568664  0
0.0642767 -0.0478904  0
0.0727283 -0.0370447  0
0.0752 -0.0262008  0
0.0729728 -0.0163402  0
0.0674719 -0.00686967  0
0.0602031 0.00657411  0
0.0522114 0.0347778  0
0.0430182 0.0900911  0
0.0299723 0.168962  0
0.0110069 0.233611  0
-0.00641984 0.0444968  0
-0.0205963 0.0457508  0
-0.0371799 0.0440797  0
-0.0545452 0.0363739  0
-0.0698452 0.0220734  0
-0.0804811 0.00248339  0
-0.0848063 -0.0200537  0
-0.0821176 -0.0431339  0
-0.0724111 -0.0644526  0
-0.0557808 -0.0829878  0
-0.0315363 -0.0990999  0
0.00159384 -0.113761  0
0.0452442 -0.130705  0
0.100713 -0.152906  0
0.166423 -0.172659  0
0.242019 -0.158154  0
0.215882 0.0704582  0
0.124007 -0.0109046  0
0.0941319 -0.105031  0
0.0575399 0.157066  0
0.0257403 0.0762067  0
-0.0502871 0.0213243  0
-0.126315 -0.038546  0
-0.161392 0.057385  0
-0.166771 -0.0924786  0
-0.127555 -0.0762988  0
-0.0915143 -0.103312  0
-0.03724 -0.107358  0
0.0135099 -0.0992179  0
0.052663 -0.0838099  0
0.0774667 -0.0636866  0
0.0884383 -0.0432245  0
0.0881744 -0.0247821  0
0.0795879 -0.00949861  0
0.0655858 0.00323846  0
0.0494953 0.0172725  0
0.0357361 0.0432779  0
0.0277148 0.0962534  0
0.0215527 0.179456  0
0.0088707 0.252213  0
-0.00905563 0.0586649  0
-0.0295518 0.0636754  0
-0.054401 0.0650427  0
-0.0809601 0.0567899  0
-0.104642 0.0380936  0
-0.121453 0.0113651  0
-0.129208 -0.0193999  0
-0.126924 -0.0513032  0
-0.114295 -0.08116  0
-0.0907346 -0.109011  0
-0.0539177 -0.136676  0
-0.00305916 -0.16271  0
0.058169 -0.189168  0
0.119752 -0.214024  0
0.153409 -0.212802  0
0.157979 -0.199439  0
0.21507 -0.0310949  0
0.242751 0.00708918  0
0.0067883 -0.0501191  0
-0.0306825 0.0944328  0
0.0820697 0.0381033  0
-0.0502871 -0.019273  0
-0.0995791 0.0266405  0
-0.0728437 0.0918271  0
-0.0868495 -0.108806  0
-0.128014 -0.0592912  0
-0.12306 -0.16322  0
-0.0562605 -0.171067  0
0.0109888 -0.156052  0
0.0685167 -0.126203  0
0.105515 -0.0856434  0
0.118234 -0.0475068  0
0.110452 -0.0150028  0
0.0876882 0.00952348  0
0.0563203 0.0270377  0
0.0235885 0.0397478  0
0.000906625 0.0546965  0
-0.000425911 0.091642  0
0.0108235 0.176434  0
0.00819194 0.268003  0
-0.0168599 0.0832862  0
-0.0531026 0.0932292  0
-0.0940753 0.0987715  0
-0.136598 0.0896031  0
-0.174042 0.0638652  0
-0.200232 0.0260533  0
-0.212392 -0.016713  0
-0.208897 -0.0623086  0
-0.189681 -0.104537  0
-0.15533 -0.146082  0
-0.102621 -0.191666  0
-0.0364376 -0.227293  0
0.028191 -0.252971  0
0.0582334 -0.243742  0
0.0991402 -0.230557  0
0.149013 -0.0997197  0
0.0789893 -0.0997197  0
0 0  0
0 0  0
0 0  0
0 0  0
0 0  0
-0.0364218 0.0459135  0
0.0204699 0.0459135  0
-0.0248699 -0.0474  0
-0.0910887 -0.11405  0
-0.0186542 -0.195968  0
-0.000397731 -0.224644  0
0.0477547 -0.219783  0
0.110166 -0.184955  0
0.157979 -0.114248  0
0.171436 -0.0476242  0
0.151036 0.0107521  0
0.103226 0.0517976  0
0.041806 0.0750068  0
-0.0155129 0.0792865  0
-0.0473448 0.06713  0
-0.0326866 0.0633421  0
0.012086 0.146171  0
0.0177591 0.292684  0
-0.0331446 0.13201  0
-0.0991962 0.144253  0
-0.165505 0.152497  0
-0.232057 0.142419  0
-0.289577 0.103477  0
-0.325488 0.0460035  0
-0.336671 -0.015857  0
-0.321043 -0.084824  0
-0.285616 -0.139199  0
-0.241053 -0.192867  0
-0.182668 -0.258506  0
-0.126571 -0.28463  0
-0.104452 -0.283646  0
-0.0231094 -0.263694  0
0.0291167 -0.121871  0
0 0  0
0 0  0
0 0  0
0 0  0
0 0  0
0 0  0
0 0  0
0 0  0
0 0  0
0 0  0
-0.00932711 -0.0979841  0
0.00481213 -0.0979841  0
0.0921395 -0.246608  0
0.156001 -0.250314  0
0.184845 -0.247586  0
0.228017 -0.145144  0
0.241905 -0.0466146  0
0.21541 0.0540963  0
0.141369 0.127762  0
0.0421199 0.157171  0
-0.0407763 0.134799  0
-0.0817641 0.0819009  0
-0.0550715 0.00468582  0
0.0347707 0.0676774  0
0.0442822 0.353457  0
-0.0494683 0.213985  0
-0.14293 0.220521  0
-0.227596 0.225938  0
-0.321925 0.228592  0
-0.404572 0.155569  0
-0.438172 0.0608849  0
-0.431885 -0.0283775  0
-0.389902 -0.132448  0
-0.341186 -0.177617  0
-0.307788 -0.233675  0
-0.292019 -0.293118  0
-0.209787 -0.299933  0
-0.116003 -0.141823  0
-0.0522261 -0.141823  0
0 0  0
0 0  0
0 0  0
0 0  0
0 0  0
0 0  0
0 0  0
0 0  0
0 0  0
0 0  0
0 0  0
0 0  0
0 0  0
0.0780003 -0.125157  0
0.212038 -0.26369  0
0.268074 -0.277066  0
0.265172 -0.157204  0
0.268557 -0.0537322  0
0.253911 0.099815  0
0.175365 0.232092  0
0.0653485 0.25957  0
-0.00418406 0.182294  0
-0.0572025 0.126513  0
-0.100477 -0.024611  0
-0.0942832 -0.000327339  0
-0.0403526 0.356754  0
-0.0499985 0.131727  0
-0.144509 0.132257  0
-0.236464 0.133305  0
-0.338663 0.233087  0
-0.39342 0.183924  0
-0.398432 0.0698722  0
-0.398566 -0.0447848  0
-0.393687 -0.164168  0
-0.331522 -0.179707  0
-0.258852 -0.124723  0
-0.270183 -0.146559  0
-0.146009 -0.146559  0
0 0  0
0 0  0
0 0  0
0 0  0
0 0  0
0 0  0
0 0  0
0 0  0
0 0  0
0 0  0
0 0  0
0 0  0
0 0  0
0 0  0
0 0  0
0 0  0
0.134037 -0.138533  0
0.206693 -0.138533  0
0.182177 -0.107478  0
0.219042 -0.0606544  0
0.20883 0.130326  0
0.165041 0.322648  0
0.111613 0.330556  0
0.0917618 0.19879  0
0.0891495 0.180597  0
-0.0123225 -0.0086132  0
-0.261097 -0.00695263  0
-0.205506 0.158201  0
0 0  0
0 0  0
0 0  0
-0.19671 0.091962  0
-0.3389 0.091962  0
-0.281638 0.0374422  0
-0.279039 -0.0248316  0
-0.336435 -0.0820841  0
-0.196844 -0.0820841  0
0 0  0
0 0  0
0 0  0
0 0  0
0 0  0
0 0  0
0 0  0
0 0  0
0 0  0
0 0  0
0 0  0
0 0  0
0 0  0
0 0  0
0 0  0
0 0  0
0 0  0
0 0  0
0 0  0
0 0  0
0 0  0
0.109521 -0.0303272  0
0.118446 -0.0303272  0
0.000390707 0.0702692  0
0.0580335 0.285867  0
0.200267 0.282641  0
0.17958 0.20715  0
0.0458809 0.0993952  0
0 0  0
0 0  0
0 0  0
0 0  0
0 0  0
0 0  0
0 0  0
0 0  0
0 0  0
0 0  0
0 0  0
0 0  0
0 0  0
0 0  0
0 0  0
0 0  0
0 0  0
0 0  0
0 0  0
0 0  0
0 0  0
0 0  0
0 0  0
0 0  0
0 0  0
0 0  0
0 0  0
0 0  0
0 0  0
0 0  0
0 0  0
0 0  0
0 0  0
0 0  0
0 0  0
0 0  0
0.0665677 0.107755  0
0.200267 0.107755  0
0.133699 0.107755  0
0 0  0
0 0  0
0 0  0
0 0  0
0 0  0
0 0  0
0 0  0
0 0  0
0 0  0
0 0  0
0 0  0
0 0  0
0 0  0
0 0  0
0 0  0
0 0  0
0 0  0
0 0  0
0 0  0
0 0  0
0 0  0
0 0  0
0 0  0
0 0  0
0 0  0
0 0  0
0 0  0
0 0  0
0 0  0
0 0  0
0 0  0
0 0  0
0 0  0
0 0  0
0 0  0
0 0  0
0 0  0
0 0  0
0 0  0
0 0  0
0 0  0
0 0  0
0 0  0
0 0  0
0 0  0
0 0  0
0 0  0
0 0  0
0 0  0
0 0  0
0 0  0
0 0  0
0 0  0
0 0  0
0 0  0
0 0  0
0 0  0
0 0  0
0 0  0
0 0  0
0 0  0
0 0  0
0 0  0
0 0  0
0 0  0
0 0  0
0 0  0
0 0  0
0 0  0
0 0  0
0 0  0
0 0  0
0 0  0
0 0  0
0 0  0
0 0  0
0 0  0
0 0  0
0 0  0
0 0  0
0 0  0
0 0  0
0 0  0
0 0  0
0 0  0
0 0  0
0 0  0
0 0  0
0 0  0
0 0  0
0 0  0
0 0  0
0 0  0
0 0  0
0 0  0
0 0  0
0 0  0
0 0  0
0 0  0
0 0  0
0 0  0
0 0  0
0 0  0
0 0  0
0 0  0
0 0  0
0 0  0
0 0  0
0 0  0
0 0  0
0 0  0
0 0  0
0 0  0
0 0  0
0 0  0
0 0  0
0 0  0
0 0  0
0 0  0
0 0  0
0 0  0
0 0  0
0 0  0
0 0  0
0 0  0
0 0  0
0 0  0
0 0  0
0 0  0
0 0  0
0 0  0
0 0  0
0 0  0
0 0  0
0 0  0
0 0  0
0 0  0
0 0  0
0 0  0
0 0  0
0 0  0
0 0  0
0 0  0
0 0  0
0 0  0
0 0  0
0 0  0
0 0  0
0 0  0
0 0  0
0 0  0
0 0  0
0 0  0
0 0  0
0 0  0
0 0  0
0 0  0
0 0  0
0 0  0
0 0  0
0 0  0
0 0  0
0 0  0
0 0  0
0 0  0
0 0  0
0 0  0
0 0  0
0 0  0
0 0  0
0 0  0
0 0  0
0 0  0
0 0  0
0 0  0
0 0  0
0 0  0
0 0  0
0 0  0
0 0  0
0 0  0
0 0  0
0 0  0
0 0  0
0 0  0
0 0  0
0 0  0
0 0  0
0 0  0
0 0  0
0 0  0
0 0  0
0 0  0
0 0  0
0 0  0
0 0  0
0 0  0
0 0  0
0 0  0
0 0  0
0 0  0
0 0  0
0 0  0
0 0  0
0 0  0
0 0  0
0 0  0
0 0  0
0 0  0
0 0  0
0 0  0
0 0  0
0 0  0
0 0  0
0 0  0
0 0  0
0 0  0
0 0  0
0 0  0
0 0  0
0 0  0
0 0  0
0 0  0
0 0  0
0 0  0
0 0  0
0 0  0
0 0  0
0 0  0
0 0  0
0 0  0
0 0  0
0 0  0
0 0  0
0 0  0
0 0  0
0 0  0
0 0  0
0 0  0
0 0  0
0 0  0
0 0  0
0 0  0
0 0  0
0 0  0
0 0  0
0 0  0
0 0  0
0 0  0
0 0  0
0 0  0
0 0  0
0 0  0
0 0  0
0 0  0
0 0  0
0 0  0
0 0  0
0 0  0
0 0  0
0 0  0
0 0  0
0 0  0
0 0  0
0 0  0
0 0  0
0 0  0
0 0  0
0 0  0
0 0  0
0 0  0
0 0  0
0 0  0
0 0  0
0 0  0
0 0  0
0 0  0
0 0  0
0 0  0
0 0  0
0 0  0
0 0  0
0 0  0
0 0  0
0 0  0
0 0  0
0 0  0
0 0  0
0 0  0
0 0  0
0 0  0
0 0  0
0 0  0
0 0  0
0 0  0
0 0  0
0 0  0
0 0  0
0 0  0
0 0  0
0 0  0
0 0  0
0 0  0
0 0  0
0 0  0
0 0  0
0 0  0
0 0  0
0 0  0
0 0  0
0 0  0
0 0  0
0 0  0
0 0  0
0 0  0
0 0  0
0 0  0
0 0  0
0 0  0
0 0  0
0 0  0
0 0  0
0 0  0
0 0  0
0 0  0
0 0  0
0 0  0
0 0  0
0 0  0
0 0  0
0 0  0
0 0  0
0 0  0
0 0  0
0 0  0
0 0  0
0 0  0
0 0  0
0 0  0
0 0  0
0 0  0
0 0  0
0 0  0
0 0  0
0 0  0
0 0  0
0 0  0
0 0  0
0 0  0
0 0  0
0 0  0
0 0  0
0 0  0
0 0  0
0 0  0
0 0  0
0 0  0
0 0  0
0 0  0
0 0  0
0 0  0
0 0  0
0 0  0
0 0  0
0 0  0
0 0  0
0 0  0
0 0  0
0 0  0
0 0  0
0 0  0
0 0  0
0 0  0
0 0  0
0 0  0
0 0  0
0 0  0
0 0  0
0 0  0
0 0  0
0 0  0
0 0  0
0 0  0
0 0  0
0 0  0
0 0  0
0 0  0
0 0  0
0 0  0
0 0  0
0 0  0
0 0  0
0 0  0
0 0  0
0 0  0
0 0  0
0 0  0
0 0  0
0 0  0
0 0  0
0 0  0
0 0  0
0 0  0
0 0  0
0 0  0
0 0  0
0 0  0
0 0  0
0 0  0
0 0  0
0 0  0
0 0  0
0 0  0
0 0  0
0 0  0
0 0  0
0 0  0
0 0  0
0 0  0
0 0  0
0 0  0
0 0  0
0 0  0
0 0  0
0 0  0
0 0  0
0 0  0
0 0  0
0 0  0
0 0  0
0 0  0
0 0  0
0 0  0
0 0  0
0 0  0
0 0  0
0 0  0
0 0  0
0 0  0
0 0  0
0 0  0
0 0  0
0 0  0
0 0  0

SCALARS pressure double 1
LOOKUP_TABLE default
3.10798
3.1051
3.09922
3.09041
3.07872
3.06428
3.04723
3.0278
3.00627
2.98303
2.95852
2.9333
2.908
2.88329
2.85993
2.83865
2.82021
2.80526
2.79441
2.78812
2.78667
2.79017
2.79848
2.81125
2.82795
2.84788
2.87028
2.89433
2.91927
2.94435
2.96893
2.99242
3.01437
3.03437
3.05214
3.06747
3.08019
3.09021
3.09734
3.10121
2.90797
2.90507
2.89915
2.89026
2.87847
2.86387
2.84659
2.82686
2.80496
2.78125
2.75619
2.73034
2.70434
2.6789
2.65478
2.63277
2.61364
2.59811
2.5868
2.58022
2.57869
2.58232
2.59099
2.60432
2.62171
2.64243
2.66563
2.69047
2.71614
2.74189
2.76704
2.79102
2.81335
2.83365
2.85164
2.86712
2.87995
2.89003
2.89721
2.90111
2.70784
2.7049
2.6989
2.68989
2.67789
2.66298
2.64527
2.62496
2.6023
2.57766
2.55149
2.52437
2.49695
2.47001
2.44434
2.42083
2.4003
2.38355
2.3713
2.3641
2.36237
2.36628
2.37569
2.39018
2.40902
2.43134
2.45619
2.48264
2.50981
2.53689
2.56319
2.58813
2.61122
2.63211
2.65053
2.6663
2.67932
2.68951
2.69673
2.70065
2.50762
2.50463
2.49855
2.48937
2.47709
2.46175
2.44342
2.42226
2.39848
2.37245
2.3446
2.31553
2.28594
2.25666
2.2286
2.20272
2.18
2.16134
2.14757
2.13936
2.13727
2.14157
2.15218
2.16854
2.18971
2.21459
2.24204
2.27098
2.30043
2.32955
2.35759
2.38396
2.40819
2.42993
2.44896
2.46513
2.47839
2.48871
2.49598
2.4999
2.30734
2.30433
2.29816
2.2888
2.27622
2.26036
2.24126
2.21901
2.19378
2.16588
2.13577
2.10403
2.07145
2.03892
2.00749
1.9783
1.95246
1.93107
1.91508
1.90534
1.90259
1.90739
1.91977
1.93894
1.96357
1.99214
2.02326
2.05567
2.08827
2.12015
2.15054
2.17882
2.20452
2.22735
2.24711
2.26375
2.27727
2.2877
2.295
2.29891
2.10704
2.10401
2.0978
2.08833
2.07546
2.05907
2.03911
2.01557
1.98857
1.95836
1.92538
1.89022
1.85371
1.8169
1.78098
1.74732
1.7173
1.69221
1.67316
1.66113
1.65718
1.66247
1.67742
1.70075
1.73033
1.76402
1.80007
1.83702
1.8737
1.90911
1.94246
1.97311
2.00061
2.0247
2.04527
2.06235
2.07607
2.08654
2.0938
2.09767
1.9067
1.90371
1.89756
1.88808
1.87504
1.8582
1.83735
1.8124
1.78337
1.75043
1.71396
1.67456
1.6331
1.59078
1.54903
1.50952
1.474
1.44412
1.42102
1.40562
1.39935
1.40472
1.42351
1.45316
1.48983
1.53042
1.57283
1.61551
1.65725
1.69701
1.73394
1.7674
1.79697
1.82243
1.84378
1.86118
1.87491
1.88525
1.89236
1.89611
1.70624
1.7034
1.69748
1.68822
1.67524
1.65813
1.6365
1.61011
1.57885
1.5428
1.50224
1.45773
1.41015
1.36087
1.31163
1.26454
1.22186
1.18601
1.15797
1.13775
1.12672
1.13037
1.1556
1.19543
1.24229
1.29188
1.34217
1.3918
1.43961
1.48456
1.52574
1.56245
1.59429
1.62112
1.64308
1.66051
1.67392
1.68381
1.69053
1.69408
1.5055
1.50294
1.49753
1.48886
1.47634
1.45932
1.43716
1.40942
1.37585
1.3364
1.29121
1.24068
1.18566
1.12763
1.0688
1.0119
0.95971
0.916883
0.883792
0.857416
0.836192
0.83134
0.87007
0.92761
0.988921
1.04945
1.10898
1.1667
1.22165
1.27271
1.31881
1.35919
1.39345
1.42153
1.44374
1.46067
1.47316
1.48209
1.48809
1.49129
1.30414
1.30207
1.29758
1.29008
1.27867
1.26232
1.24005
1.21119
1.17536
1.13238
1.08214
1.02473
0.960788
0.891658
0.820355
0.750872
0.684863
0.634893
0.599182
0.567405
0.52529
0.485411
0.56289
0.653085
0.733019
0.804666
0.874181
0.940987
1.00427
1.06254
1.11437
1.15886
1.19559
1.22464
1.24649
1.26208
1.27271
1.27987
1.28469
1.28737
1.1016
1.10029
1.09731
1.09183
1.08253
1.06775
1.04603
1.01639
0.978462
0.932042
0.876629
0.811676
0.737253
0.653515
0.564768
0.480057
0.387983
0.335861
0.30358
0.277122
0.20614
0.0159859
0.240262
0.384363
0.480342
0.557896
0.637928
0.714767
0.788169
0.855305
0.913903
0.962958
1.00217
1.03172
1.05231
1.06527
1.07264
1.07693
1.07995
1.0819
0.897031
0.896786
0.896016
0.893807
0.888217
0.876322
0.856008
0.825928
0.786085
0.736675
0.676461
0.603766
0.51798
0.414122
0.296093
0.199751
0.0329006
0.0122672
0.0012591
0.0171639
-0.0089747
0
-0.00497708
0.154021
0.235315
0.303121
0.398507
0.486519
0.573301
0.652347
0.719177
0.773341
0.814961
0.844405
0.862517
0.871007
0.873109
0.873125
0.873616
0.874528
0.689236
0.690184
0.692308
0.695039
0.695842
0.688766
0.670758
0.640186
0.598184
0.546808
0.482855
0.402859
0.309117
0.180007
-0.00419421
-0.00731868
0
0
0
0
0
0
0
0.000128221
0.00666665
0.0127646
0.156451
0.250427
0.358771
0.455081
0.531964
0.591844
0.635853
0.664651
0.678827
0.680094
0.673937
0.668205
0.665338
0.664568
0.476649
0.478293
0.483229
0.49264
0.505078
0.505568
0.490196
0.457956
0.411654
0.360759
0.294952
0.205901
0.124528
-0.00639767
0
0
0
0
0
0
0
0
0
0
0
0
-0.0345445
-0.0104641
0.145667
0.265608
0.352758
0.419079
0.46583
0.494284
0.502909
0.492485
0.472803
0.459694
0.452666
0.44908
0.256896
0.257488
0.262632
0.278089
0.315361
0.326577
0.313526
0.276431
0.216665
0.174843
0.113223
-0.012222
-0.0153925
0
0
0
0
0
0
0
0
0
0
0
0
0
0
0
-0.0410423
0.0920598
0.178653
0.253137
0.303699
0.332325
0.3348
0.305614
0.260769
0.240274
0.226525
0.21641
0.0247558
0.0219788
0.0200764
0.0257539
0.133499
0.154184
0.143351
0.100911
-0.0100155
-0.00783036
-0.0207182
0
0
0
0
0
0
0
0
0
0
0
0
0
0
0
0
0
0
-0.0449935
0.00116911
0.0993391
0.147108
0.173832
0.175477
0.123858
0.0171973
0.00355833
-0.00658634
-0.0207189
0
0
0
0
0.0223641
0.00252041
-0.00225423
-0.0150925
0
0
0
0
0
0
0
0
0
0
0
0
0
0
0
0
0
0
0
0
0
0
0
-0.00156489
0.00520549
0.0166753
0.0472075
-0.00480159
0
0
0
0
0
0
0
0
0
0
0
0
0
0
0
0
0
0
0
0
0
0
0
0
0
0
0
0
0
0
0
0
0
0
0
0
0
0
0
0
0
0
0
0
0
0
0
0
0
0
0
0
0
0
0
0
0
0
0
0
0
0
0
0
0
0
0
0
0
0
0
0
0
0
0
0
0
0
0
0
0
0
0
0
0
0
0
0
0
0
0
0
0
0
0
0
0
0
0
0
0
0
0
0
0
0
0
0
0
0
0
0
0
0
0
0
0
0
0
0
0
0
0
0
0
0
0
0
0
0
0
0
0
0
0
0
0
0
0
0
0
0
0
0
0
0
0
0
0
0
0
0
0
0
0
0
0
0
0
0
0
0
0
0
0
0
0
0
0
0
0
0
0
0
0
0
0
0
0
0
0
0
0
0
0
0
0
0
0
0
0
0
0
0
0
0
0
0
0
0
0
0
0
0
0
0
0
0
0
0
0
0
0
0
0
0
0
0
0
0
0
0
0
0
0
0
0
0
0
0
0
0
0
0
0
0
0
0
0
0
0
0
0
0
0
0
0
0
0
0
0
0
0
0
0
0
0
0
0
0
0
0
0
0
0
0
0
0
0
0
0
0
0
0
0
0
0
0
0
0
0
0
0
0
0
0
0
0
0
0
0
0
0
0
0
0
0
0
0
0
0
0
0
0
0
0
0
0
0
0
0
0
0
0
0
0
0
0
0
0
0
0
0
0
0
0
0
0
0
0
0
0
0
0
0
0
0
0
0
0
0
0
0
0
0
0
0
0
0
0
0
0
0
0
0
0
0
0
0
0
0
0
0
0
0
0
0
0
0
0
0
0
0
0
0
0
0
0
0
0
0
0
0
0
0
0
0
0
0
0
0
0
0
0
0
0
0
0
0
0
0
0
0
0
0
0
0
0
0
0
0
0
0
0
0
0
0
0
0
0
0
0
0
0
0
0
0
0
0
0
0
0
0
0
0
0
0
0
0
0
0
0
0
0
0
0
0
0
0
0
0
0
0
0
0
0
0
0
0
0
0
0
0
0
0
0
0
0
0
0
0
0
0
0
0
0
0
0
0
0
0
0
0
0
0
0
0
0
0
0
0
0
0
0
0
0
0
0
0
0
0
0
0
0
0
0
0
0
0
0
0
0
0
0
0
0
0
0
0
0
0
0
0
0
SCALARS rhs double 1
LOOKUP_TABLE default
-5.21614
-5.15448
-5.15194
-5.14978
-5.14764
-5.14556
-5.14354
-5.14159
-5.13973
-5.13796
-5.1362
-5.13466
-5.13321
-5.13188
-5.1307
-5.1297
-5.12889
-5.12827
-5.12785
-5.12763
-5.12761
-5.12778
-5.12815
-5.1287
-5.12941
-5.13025
-5.13118
-5.13216
-5.13316
-5.13414
-5.13507
-5.13593
-5.1367
-5.13738
-5.13793
-5.13836
-5.13912
-5.14203
-5.15025
-5.16515
-0.153441
-0.0954998
-0.0946147
-0.0940949
-0.0935914
-0.0931192
-0.0926875
-0.0922998
-0.091954
-0.0916433
-0.0912882
-0.0910495
-0.0908418
-0.0906328
-0.0904589
-0.0903286
-0.0902454
-0.0902044
-0.0901949
-0.0902109
-0.0902544
-0.0903311
-0.0904486
-0.0906128
-0.0908236
-0.0910722
-0.0913433
-0.0916191
-0.091883
-0.0921224
-0.0923293
-0.0925002
-0.0926342
-0.0927288
-0.0927731
-0.0927887
-0.0932128
-0.0961144
-0.10515
-0.121183
-0.149295
-0.0939309
-0.0931024
-0.0926335
-0.0921712
-0.0917378
-0.0913414
-0.0909839
-0.0906613
-0.0903651
-0.0900358
-0.089732
-0.089549
-0.0893199
-0.0891272
-0.0889871
-0.0889072
-0.0888781
-0.0888769
-0.0888915
-0.0889261
-0.0889883
-0.0890893
-0.0892415
-0.0894513
-0.0897114
-0.0900027
-0.0903014
-0.0905849
-0.0908368
-0.0910481
-0.0912162
-0.0913425
-0.0914289
-0.0914724
-0.0914993
-0.0919095
-0.0947126
-0.103359
-0.118605
-0.145064
-0.0926703
-0.0918935
-0.0914735
-0.0910516
-0.0906521
-0.0902851
-0.0899504
-0.0896413
-0.0893463
-0.0890386
-0.08861
-0.0884509
-0.0881736
-0.0879378
-0.0877751
-0.0877036
-0.0877043
-0.0877229
-0.0877355
-0.0877563
-0.0877968
-0.0878703
-0.0879999
-0.0882062
-0.0884858
-0.0888137
-0.0891545
-0.089475
-0.0897522
-0.0899756
-0.0901447
-0.0902661
-0.0903503
-0.0904127
-0.0904972
-0.0909907
-0.0938255
-0.102137
-0.116595
-0.140453
-0.0913922
-0.0906843
-0.0902921
-0.0899487
-0.0895914
-0.0892607
-0.088953
-0.0886573
-0.0883575
-0.088038
-0.0875306
-0.0872837
-0.0869653
-0.0866577
-0.0864604
-0.0864146
-0.0864871
-0.0865452
-0.0865398
-0.086532
-0.0865455
-0.086578
-0.0866692
-0.0868662
-0.0871728
-0.0875541
-0.0879571
-0.0883311
-0.0886429
-0.0888804
-0.0890484
-0.0891623
-0.0892479
-0.0893512
-0.089551
-0.0902669
-0.0933176
-0.101406
-0.115143
-0.135563
-0.0901515
-0.0895213
-0.0891532
-0.0889386
-0.088637
-0.0883533
-0.0880788
-0.0877961
-0.0874826
-0.0871167
-0.0865642
-0.0860948
-0.0857484
-0.0853307
-0.0850672
-0.0850429
-0.0852491
-0.0853676
-0.0852489
-0.0851458
-0.0851343
-0.0851298
-0.0851962
-0.0854245
-0.0858053
-0.0862759
-0.0867664
-0.0872095
-0.0875608
-0.0878084
-0.0879667
-0.0880657
-0.0881534
-0.0883194
-0.0886951
-0.0897874
-0.0932615
-0.101277
-0.114406
-0.130513
-0.089023
-0.0884931
-0.0882036
-0.0880857
-0.0879202
-0.0877021
-0.0874715
-0.0872026
-0.0868644
-0.0864304
-0.0858041
-0.0850676
-0.0847373
-0.0842013
-0.0837327
-0.0834736
-0.083855
-0.0841956
-0.0837087
-0.0831994
-0.0830318
-0.0829805
-0.0831751
-0.0837521
-0.0844811
-0.0851622
-0.0857576
-0.0862505
-0.0866143
-0.0868438
-0.0869653
-0.087027
-0.0871048
-0.0873396
-0.0879271
-0.0894975
-0.0935441
-0.101655
-0.114379
-0.125442
-0.0881068
-0.0877252
-0.0875973
-0.0874778
-0.0876699
-0.0875527
-0.0873865
-0.0871369
-0.0867691
-0.0862715
-0.0855772
-0.0847307
-0.084828
-0.0845414
-0.0834074
-0.0813884
-0.0817648
-0.0838951
-0.0839718
-0.0817802
-0.0796021
-0.078644
-0.0794714
-0.081828
-0.0837804
-0.0849786
-0.0855778
-0.0858908
-0.0860809
-0.0861712
-0.0861734
-0.0861349
-0.0861541
-0.0864097
-0.0871439
-0.0890544
-0.0935287
-0.101893
-0.114683
-0.120485
-0.0875356
-0.0874196
-0.0875501
-0.0875157
-0.0883349
-0.0883895
-0.088329
-0.0881184
-0.0877561
-0.0873448
-0.0867918
-0.0868352
-0.0894177
-0.0927056
-0.0918358
-0.0833599
-0.0780882
-0.0928274
-0.112725
-0.0997334
-0.0827226
-0.0719308
-0.0754615
-0.0854196
-0.087493
-0.0889964
-0.0887202
-0.0876521
-0.0867991
-0.0862718
-0.0858956
-0.0855831
-0.0854018
-0.0854854
-0.0859367
-0.0873372
-0.091196
-0.099976
-0.114077
-0.115749
-0.0875105
-0.0879742
-0.0886813
-0.089169
-0.0906172
-0.0913789
-0.0915084
-0.0913904
-0.0912288
-0.0916176
-0.0919489
-0.0965022
-0.108244
-0.132071
-0.156311
-0.147892
-0.0675853
-0.174456
-0.263072
-0.147617