# vtk DataFile Version 4.0
Nusif Fluid VTK output
ASCII
DATASET STRUCTURED_POINTS
DIMENSIONS 40 30 1
ORIGIN 0 0 0 
SPACING 0.2 0.2 1
POINT_DATA 1200 

VECTORS velocity double
-0.00612503 0.00569951  0
-0.0181687 0.00554709  0
-0.0296987 0.00524102  0
-0.0404667 0.00478708  0
-0.0501913 0.00419929  0
-0.0586278 0.00350037  0
-0.0655833 0.00271944  0
-0.0709258 0.00188817  0
-0.0745847 0.0010367  0
-0.0765455 0.000190645  0
-0.0768386 -0.000630589  0
-0.0755267 -0.00141405  0
-0.0726924 -0.0021526  0
-0.068429 -0.00284288  0
-0.0628354 -0.0034826  0
-0.0560169 -0.00406748  0
-0.048092 -0.00458878  0
-0.0392019 -0.00503235  0
-0.0295202 -0.00538016  0
-0.019256 -0.00561461  0
-0.00864728 -0.0057242  0
0.00205551 -0.00570832  0
0.012614 -0.00557947  0
0.0228231 -0.00535843  0
0.0325202 -0.00506695  0
0.0415813 -0.00472189  0
0.0499083 -0.00433223  0
0.0574126 -0.00389851  0
0.0639987 -0.00341339  0
0.0695488 -0.00286192  0
0.073907 -0.00222074  0
0.0768607 -0.00145676  0
0.0781221 -0.000527753  0
0.0773155 0.000611805  0
0.0739865 0.00199524  0
0.0676556 0.0036142  0
0.0579372 0.00538313  0
0.0447173 0.00711599  0
0.0283409 0.00853984  0
0.00972042 0.00936019  0
-0.00628557 0.0173148  0
-0.0186492 0.0168535  0
-0.0304897 0.0159258  0
-0.0415432 0.0145467  0
-0.0515124 0.0127583  0
-0.0601391 0.0106309  0
-0.0672226 0.00825556  0
-0.0726305 0.00573089  0
-0.0762984 0.00315012  0
-0.078222 0.000591653  0
-0.0784441 -0.001886  0
-0.0770388 -0.00424496  0
-0.074098 -0.0064656  0
-0.0697196 -0.00854006  0
-0.0640033 -0.0104636  0
-0.0570513 -0.0122248  0
-0.0489769 -0.0137982  0
-0.0399172 -0.0151399  0
-0.0300449 -0.0161934  0
-0.0195746 -0.0169024  0
-0.00875569 -0.0172299  0
0.00214726 -0.0171737  0
0.0128836 -0.0167737  0
0.0232429 -0.0160967  0
0.033065 -0.0152113  0
0.0422331 -0.0141694  0
0.0506573 -0.0129978  0
0.0582554 -0.0116964  0
0.0649341 -0.0102406  0
0.070573 -0.00858323  0
0.0750086 -0.00665172  0
0.0780164 -0.00434505  0
0.0792944 -0.00153576  0
0.0784531 0.00191154  0
0.0750296 0.00609258  0
0.0685469 0.0109756  0
0.0586349 0.0162977  0
0.045204 0.0214982  0
0.028622 0.0257622  0
0.00981143 0.0282151  0
-0.00662052 0.0294849  0
-0.0196508 0.028705  0
-0.0321366 0.0271281  0
-0.0437815 0.0247708  0
-0.0542528 0.0217032  0
-0.0632632 0.0180517  0
-0.0705971 0.0139811  0
-0.0761231 0.0096683  0
-0.0797918 0.00527836  0
-0.0816224 0.000946839  0
-0.0816839 -0.00322836  0
-0.0800748 -0.00718755  0
-0.0769053 -0.0109039  0
-0.0722843 -0.0143716  0
-0.0663134 -0.0175897  0
-0.0590893 -0.020545  0
-0.0507155 -0.0231962  0
-0.04132 -0.0254669  0
-0.0310743 -0.027254  0
-0.0202028 -0.0284531  0
-0.00897623 -0.028994  0
0.00231371 -0.0288715  0
0.0133937 -0.0281609  0
0.0240444 -0.0269881  0
0.0341118 -0.0254776  0
0.0434939 -0.023721  0
0.0521169 -0.021761  0
0.0599099 -0.0195914  0
0.0667825 -0.0171636  0
0.0726073 -0.0143904  0
0.0772049 -0.0111435  0
0.0803268 -0.00724871  0
0.0816429 -0.00249147  0
0.0807371 0.00334931  0
0.0771314 0.0104193  0
0.0703542 0.0186443  0
0.0600644 0.0275664  0
0.0462157 0.0362447  0
0.0292159 0.0433331  0
0.010006 0.0474003  0
-0.00716352 0.0425409  0
-0.0212734 0.0414274  0
-0.0348 0.0391511  0
-0.0473893 0.0357153  0
-0.0586474 0.0312216  0
-0.0682401 0.0258701  0
-0.0759318 0.0199222  0
-0.0815993 0.0136545  0
-0.0852226 0.00731813  0
-0.0868626 0.00111159  0
-0.0866317 -0.00482853  0
-0.0846678 -0.0104263  0
-0.0811116 -0.0156568  0
-0.07609 -0.0205271  0
-0.0697094 -0.0250514  0
-0.0620601 -0.0292223  0
-0.0532325 -0.0329857  0
-0.0433429 -0.0362277  0
-0.0325599 -0.038787  0
-0.0211206 -0.0404958  0
-0.00932299 -0.0412401  0
0.00250657 -0.0410094  0
0.0140669 -0.0399276  0
0.0251311 -0.0382002  0
0.035557 -0.0360223  0
0.0452647 -0.0335292  0
0.0542015 -0.0307756  0
0.0623088 -0.0277396  0
0.0694955 -0.0243368  0
0.0756198 -0.0204283  0
0.0804751 -0.0158199  0
0.0837766 -0.0102569  0
0.0851526 -0.00343597  0
0.0841497 0.0049421  0
0.0802698 0.0150521  0
0.073052 0.0267466  0
0.0621997 0.0393466  0
0.0477304 0.0515231  0
0.030108 0.0614173  0
0.010299 0.0670754  0
-0.00798739 0.0569729  0
-0.023731 0.0554992  0
-0.038818 0.0524315  0
-0.0527939 0.0477388  0
-0.0651671 0.0415683  0
-0.0755398 0.0342279  0
-0.0836596 0.026115  0
-0.0894295 0.0176381  0
-0.092886 0.0091534  0
-0.0941581 0.000927427  0
-0.0934264 -0.00686793  0
-0.0908868 -0.0141513  0
-0.0867221 -0.0209136  0
-0.0810856 -0.0271894  0
-0.0740944 -0.0330217  0
-0.0658362 -0.0384202  0
-0.0563902 -0.0433219  0
-0.045861 -0.0475707  0
-0.0344142 -0.0509339  0
-0.0222979 -0.0531645  0
-0.00983386 -0.0540927  0
0.00262239 -0.053702  0
0.0147488 -0.052181  0
0.0263195 -0.0498406  0
0.0372129 -0.0469599  0
0.0473749 -0.0437196  0
0.0567725 -0.0401775  0
0.0653514 -0.0362816  0
0.0730076 -0.031895  0
0.0795699 -0.0268136  0
0.0847899 -0.0207664  0
0.0883336 -0.0134116  0
0.0897772 -0.00435658  0
0.0886238 0.00676369  0
0.0843564 0.0201227  0
0.076538 0.0354575  0
0.0649382 0.0518331  0
0.0496611 0.0675287  0
0.0312407 0.0802002  0
0.0106703 0.0874175  0
-0.00924177 0.0734933  0
-0.0274588 0.0716029  0
-0.0448601 0.0675606  0
-0.060812 0.0612822  0
-0.0746787 0.0530094  0
-0.0859988 0.0432244  0
-0.0945327 0.0325169  0
-0.100252 0.0214696  0
-0.103294 0.0105652  0
-0.103899 0.000136956  0
-0.102343 -0.00962096  0
-0.0988959 -0.0186403  0
-0.0937961 -0.0269448  0
-0.0872344 -0.0346121  0
-0.0793512 -0.0417289  0
-0.0702435 -0.0483342  0
-0.0599904 -0.0543623  0
-0.0486927 -0.0596123  0
-0.0365143 -0.0637723  0
-0.0237045 -0.066507  0
-0.0105868 -0.0675865  0
0.00248334 -0.066989  0
0.0151905 -0.0649816  0
0.02733 -0.0620039  0
0.0388105 -0.0584241  0
0.0496 -0.0544603  0
0.0596691 -0.0501565  0
0.0689448 -0.0454099  0
0.0772829 -0.0400131  0
0.084457 -0.0336835  0
0.0901561 -0.026067  0
0.0939838 -0.0167333  0
0.0954607 -0.00520583  0
0.0940497 0.00892729  0
0.0892305 0.025796  0
0.0806177 0.0449661  0
0.0680832 0.0652096  0
0.051843 0.0844205  0
0.0325071 0.0998158  0
0.0110836 0.108547  0
-0.0112171 0.0932545  0
-0.0332881 0.0908076  0
-0.0541719 0.0853921  0
-0.072911 0.0768928  0
-0.0886859 0.0657913  0
-0.101031 0.0528586  0
-0.109803 0.0389383  0
-0.115119 0.0248341  0
-0.1173 0.0111743  0
-0.116755 -0.00166255  0
-0.113887 -0.0134955  0
-0.109051 -0.0242986  0
-0.102545 -0.0341433  0
-0.0946085 -0.0431615  0
-0.0854278 -0.0514935  0
-0.075137 -0.0592181  0
-0.0638413 -0.066277  0
-0.0516565 -0.0724297  0
-0.0387465 -0.0772928  0
-0.0253381 -0.0804541  0
-0.0117069 -0.0816373  0
0.00185545 -0.0808196  0
0.0150921 -0.0783436  0
0.027852 -0.0747898  0
0.0400847 -0.0705995  0
0.0517632 -0.0660008  0
0.0628253 -0.0609948  0
0.0731339 -0.0554031  0
0.082457 -0.0489279  0
0.0904685 -0.0412007  0
0.0967635 -0.0317899  0
0.100872 -0.0201921  0
0.102265 -0.00586221  0
0.100387 0.0116282  0
0.0947487 0.0323082  0
0.0850721 0.0554994  0
0.0713928 0.0796466  0
0.0540706 0.102303  0
0.0337773 0.12032  0
0.0114959 0.130505  0
-0.0144376 0.118223  0
-0.0427029 0.114868  0
-0.06893 0.1072  0
-0.0915741 0.0952252  0
-0.109633 0.0800497  0
-0.122848 0.0629172  0
-0.131377 0.0449365  0
-0.135629 0.0271612  0
-0.136222 0.0103775  0
-0.133819 -0.00505826  0
-0.128967 -0.0190649  0
-0.122082 -0.0316944  0
-0.113513 -0.0430678  0
-0.103567 -0.0533635  0
-0.0925134 -0.0627707  0
-0.0805721 -0.0714175  0
-0.0679172 -0.0792725  0
-0.0547056 -0.0860747  0
-0.0410997 -0.0914076  0
-0.0272598 -0.0948314  0
-0.0133292 -0.0960655  0
0.000554867 -0.0950812  0
0.0142623 -0.0922693  0
0.0277407 -0.0883455  0
0.0409933 -0.0837718  0
0.0539706 -0.0787267  0
0.0665199 -0.0731226  0
0.0783712 -0.0666772  0
0.0891315 -0.0589786  0
0.0983004 -0.0495715  0
0.105322 -0.0379763  0
0.109639 -0.0236709  0
0.110701 -0.00607815  0
0.10798 0.0152043  0
0.101078 0.040034  0
0.0899112 0.0673786  0
0.0747925 0.0953278  0
0.0562667 0.121232  0
0.0350149 0.141698  0
0.0119017 0.153284  0
-0.0197432 0.151731  0
-0.0580432 0.146634  0
-0.0924924 0.134874  0
-0.120531 0.116998  0
-0.141063 0.0956316  0
-0.154541 0.0727907  0
-0.161868 0.0496815  0
-0.163971 0.0275334  0
-0.161918 0.00730792  0
-0.156725 -0.0108232  0
-0.149049 -0.0270679  0
-0.139285 -0.0415783  0
-0.127798 -0.0544787  0
-0.114986 -0.0659499  0
-0.101266 -0.0761972  0
-0.0870265 -0.0854102  0
-0.0725593 -0.0936404  0
-0.058081 -0.100635  0
-0.0437425 -0.10603  0
-0.0295745 -0.109455  0
-0.0154692 -0.110716  0
-0.00131926 -0.109703  0
0.012917 -0.106829  0
0.0273424 -0.102927  0
0.0420548 -0.0983925  0
0.0569633 -0.0932287  0
0.0717473 -0.0871906  0
0.0859214 -0.0798709  0
0.0988321 -0.0706918  0
0.109676 -0.0591064  0
0.117628 -0.0446504  0
0.122019 -0.026939  0
0.12235 -0.00543711  0
0.118208 0.0201933  0
0.109335 0.0495872  0
0.0959548 0.0811394  0
0.0788816 0.112527  0
0.058906 0.141303  0
0.0365822 0.163972  0
0.0124521 0.177022  0
-0.0281884 0.199003  0
-0.082105 0.190305  0
-0.128724 0.171043  0
-0.164082 0.142996  0
-0.187024 0.111878  0
-0.199475 0.0812436  0
-0.204059 0.0519082  0
-0.202591 0.0247095  0
-0.196647 0.000902856  0
-0.187649 -0.0198424  0
-0.176225 -0.0383817  0
-0.162585 -0.0549017  0
-0.147075 -0.0693853  0
-0.130243 -0.0819223  0
-0.112774 -0.0926472  0
-0.095358 -0.101848  0
-0.0784179 -0.109843  0
-0.0622047 -0.116357  0
-0.046857 -0.121227  0
-0.0322186 -0.124297  0
-0.0177729 -0.125657  0
-0.00310205 -0.124814  0
0.0119458 -0.122233  0
0.027705 -0.118939  0
0.0445268 -0.115146  0
0.0623047 -0.110393  0
0.0804348 -0.104172  0
0.0981308 -0.0959906  0
0.114373 -0.0849553  0
0.127839 -0.0703833  0
0.137188 -0.0519047  0
0.141584 -0.0297007  0
0.140738 -0.00338913  0
0.134466 0.0273328  0
0.122591 0.0619684  0
0.105735 0.0977675  0
0.0857577 0.131724  0
0.0637677 0.162846  0
0.0398495 0.187446  0
0.0137207 0.202583  0
-0.0402997 0.266844  0
-0.115636 0.250458  0
-0.178205 0.218856  0
-0.223534 0.174648  0
-0.249068 0.127479  0
-0.25848 0.0862822  0
-0.258745 0.0504931  0
-0.252956 0.0176415  0
-0.242354 -0.009802  0
-0.228771 -0.0329461  0
-0.212654 -0.0540463  0
-0.193822 -0.0729374  0
-0.172734 -0.0891758  0
-0.150237 -0.10269  0
-0.1275 -0.113313  0
-0.105806 -0.12152  0
-0.0855527 -0.128591  0
-0.0668317 -0.133769  0
-0.0498825 -0.137338  0
-0.0344104 -0.139523  0
-0.019227 -0.141286  0
-0.0035514 -0.140758  0
0.0126295 -0.138745  0
0.0300292 -0.136812  0
0.0496929 -0.134985  0
0.0716433 -0.131509  0
0.0947099 -0.125478  0
0.117742 -0.116637  0
0.139287 -0.103321  0
0.157189 -0.0846119  0
0.169093 -0.0601535  0
0.173912 -0.0318905  0
0.171823 0.000511895  0
0.162875 0.0374306  0
0.146559 0.0788404  0
0.124015 0.119075  0
0.0997087 0.153481  0
0.0748416 0.186728  0
0.0482221 0.212884  0
0.0172917 0.232986  0
-0.0532107 0.359722  0
-0.148827 0.327293  0
-0.227159 0.281708  0
-0.288064 0.216813  0
-0.318128 0.139695  0
-0.322088 0.0862203  0
-0.3199 0.0474137  0
-0.312925 0.00673573  0
-0.298325 -0.02532  0
-0.279925 -0.0506326  0
-0.258118 -0.0755069  0
-0.232018 -0.0976315  0
-0.202947 -0.115864  0
-0.172361 -0.130308  0
-0.142286 -0.139728  0
-0.11548 -0.144827  0
-0.0914995 -0.150738  0
-0.0694293 -0.153635  0
-0.0502594 -0.154812  0
-0.034002 -0.155  0
-0.0182098 -0.158007  0
-0.00155655 -0.157587  0
0.015352 -0.156226  0
0.0338149 -0.156415  0
0.0565155 -0.158967  0
0.0840738 -0.158256  0
0.113989 -0.152934  0
0.144825 -0.14427  0
0.174729 -0.128357  0
0.200269 -0.104239  0
0.217131 -0.0705113  0
0.224022 -0.0344616  0
0.22195 0.00602576  0
0.210453 0.0511452  0
0.187028 0.103652  0
0.154767 0.147853  0
0.125874 0.176688  0
0.0986549 0.214393  0
0.0691898 0.240091  0
0.0275081 0.277182  0
-0.0493202 0.461633  0
-0.138879 0.409334  0
-0.229473 0.367386  0
-0.319967 0.281325  0
-0.356534 0.140605  0
-0.357089 0.0886145  0
-0.370842 0.0553719  0
-0.37341 -0.00684635  0
-0.35512 -0.0458449  0
-0.332567 -0.0722771  0
-0.304533 -0.10492  0
-0.268078 -0.131992  0
-0.227805 -0.152065  0
-0.186162 -0.167553  0
-0.146573 -0.173363  0
-0.1162 -0.169587  0
-0.0906583 -0.176715  0
-0.0649764 -0.176626  0
-0.0434784 -0.173705  0
-0.027916 -0.169142  0
-0.0133551 -0.175433  0
0.00270318 -0.174088  0
0.0183905 -0.173537  0
0.0353645 -0.175757  0
0.0593657 -0.187543  0
0.0928458 -0.191934  0
0.130339 -0.187878  0
0.171209 -0.182247  0
0.21316 -0.163451  0
0.250598 -0.133339  0
0.275532 -0.0844209  0
0.287505 -0.0406313  0
0.289473 0.0110862  0
0.277707 0.0681366  0
0.238241 0.148342  0
0.18484 0.187616  0
0.156137 0.193313  0
0.135825 0.24409  0
0.117916 0.256563  0
0.0575078 0.361897  0
-0.0206165 0.531264  0
-0.0660361 0.474074  0
-0.146108 0.472709  0
-0.216559 0.336344  0
-0.245619 0.15061  0
-0.310616 0.143558  0
-0.394044 0.0967003  0
-0.410208 -0.0306564  0
-0.382057 -0.0696881  0
-0.361146 -0.0931101  0
-0.331279 -0.143199  0
-0.282984 -0.179677  0
-0.229247 -0.199604  0
-0.174922 -0.217194  0
-0.125345 -0.214099  0
-0.098984 -0.186795  0
-0.0799262 -0.205317  0
-0.0519576 -0.202885  0
-0.0287021 -0.19341  0
-0.0156682 -0.179244  0
-0.00512924 -0.191642  0
0.00769696 -0.187975  0
0.0199252 -0.188776  0
0.0321307 -0.190907  0
0.0534833 -0.218956  0
0.089219 -0.230947  0
0.129457 -0.227807  0
0.179464 -0.234406  0
0.235035 -0.210025  0
0.285144 -0.175522  0
0.31746 -0.100698  0
0.335569 -0.0556467  0
0.34746 0.0110329  0
0.349687 0.0765222  0
0.271562 0.256643  0
0.154581 0.249093  0
0.101986 0.21253  0
0.0831512 0.263416  0
0.078533 0.259162  0
0.0392665 0.339284  0
0.00588493 0.27594  0
-0.0540848 0.249439  0
-0.0724323 0.263989  0
-0.034814 0.175763  0
-0.167194 0.082244  0
-0.30494 0.161692  0
-0.320194 0.128706  0
-0.3237 -0.0435979  0
-0.329708 -0.0794943  0
-0.328323 -0.106205  0
-0.310442 -0.178457  0
-0.26195 -0.242116  0
-0.198399 -0.255666  0
-0.135739 -0.279326  0
-0.086559 -0.25163  0
-0.0718181 -0.190968  0
-0.0644342 -0.228189  0
-0.043718 -0.229301  0
-0.022123 -0.212448  0
-0.00621049 -0.189757  0
0.00356091 -0.202043  0
0.0115083 -0.198951  0
0.0214583 -0.200583  0
0.0347071 -0.205159  0
0.0544859 -0.24644  0
0.0812568 -0.266574  0
0.11144 -0.263204  0
0.162628 -0.300808  0
0.22282 -0.259991  0
0.267974 -0.221422  0
0.298586 -0.118332  0
0.316218 -0.0743589  0
0.320201 0.0132678  0
0.315914 0.0757437  0
0.278324 0.205494  0
0.20883 0.143736  0
0.111705 0.113374  0
0.0669435 0.134017  0
0.0829691 0.129581  0
0.0392665 0.129581  0
0 0  0
0 0  0
0 0  0
0 0  0
0 0  0
-0.160097 0.064353  0
-0.235795 0.064353  0
-0.220851 -0.0200457  0
-0.294708 -0.0384963  0
-0.270594 -0.055046  0
-0.209401 -0.234684  0
-0.176726 -0.276917  0
-0.160117 -0.301632  0
-0.143507 -0.313233  0
-0.145781 -0.290219  0
-0.0872174 -0.0950673  0
-0.0386014 -0.118203  0
-0.0511492 -0.1209  0
-0.0447367 -0.110772  0
-0.0144833 -0.0982863  0
0.00724602 -0.102499  0
0.0117793 -0.101971  0
0.026212 -0.10277  0
0.0609007 -0.106725  0
0.0886893 -0.128964  0
0.0913451 -0.140929  0
0.139059 -0.139052  0
0.165524 -0.168548  0
0.175608 -0.141948  0
0.189873 -0.121335  0
0.218565 -0.063848  0
0.243593 -0.0413136  0
0.241015 0.00877698  0
0.28682 0.0378718  0
0.157957 0.0378718  0
0 0  0
0 0  0
0 0  0
0 0  0
0 0  0
0 0  0
0 0  0
0 0  0
0 0  0
0 0  0
0 0  0
0 0  0
0 0  0
0 0  0
0 0  0
-0.0883629 -0.138458  0
-0.156064 -0.138458  0
-0.141958 -0.159121  0
-0.146011 -0.156617  0
-0.0717536 -0.156617  0
0 0  0
0 0  0
0 0  0
0 0  0
0 0  0
0 0  0
0 0  0
0 0  0
0 0  0
0 0  0
0 0  0
0 0  0
0 0  0
0 0  0
0 0  0
0 0  0
0 0  0
0 0  0
0 0  0
0 0  0
0 0  0
0 0  0
0 0  0
0 0  0
0 0  0
0 0  0
0 0  0
0 0  0
0 0  0
0 0  0
0 0  0
0 0  0
0 0  0
0 0  0
0 0  0
0 0  0
0 0  0
0 0  0
0 0  0
0 0  0
0 0  0
0 0  0
0 0  0
0 0  0
0 0  0
0 0  0
0 0  0
0 0  0
0 0  0
0 0  0
0 0  0
0 0  0
0 0  0
0 0  0
0 0  0
0 0  0
0 0  0
0 0  0
0 0  0
0 0  0
0 0  0
0 0  0
0 0  0
0 0  0
0 0  0
0 0  0
0 0  0
0 0  0
0 0  0
0 0  0
0 0  0
0 0  0
0 0  0
0 0  0
0 0  0
0 0  0
0 0  0
0 0  0
0 0  0
0 0  0
0 0  0
0 0  0
0 0  0
0 0  0
0 0  0
0 0  0
0 0  0
0 0  0
0 0  0
0 0  0
0 0  0
0 0  0
0 0  0
0 0  0
0 0  0
0 0  0
0 0  0
0 0  0
0 0  0
0 0  0
0 0  0
0 0  0
0 0  0
0 0  0
0 0  0
0 0  0
0 0  0
0 0  0
0 0  0
0 0  0
0 0  0
0 0  0
0 0  0
0 0  0
0 0  0
0 0  0
0 0  0
0 0  0
0 0  0
0 0  0
0 0  0
0 0  0
0 0  0
0 0  0
0 0  0
0 0  0
0 0  0
0 0  0
0 0  0
0 0  0
0 0  0
0 0  0
0 0  0
0 0  0
0 0  0
0 0  0
0 0  0
0 0  0
0 0  0
0 0  0
0 0  0
0 0  0
0 0  0
0 0  0
0 0  0
0 0  0
0 0  0
0 0  0
0 0  0
0 0  0
0 0  0
0 0  0
0 0  0
0 0  0
0 0  0
0 0  0
0 0  0
0 0  0
0 0  0
0 0  0
0 0  0
0 0  0
0 0  0
0 0  0
0 0  0
0 0  0
0 0  0
0 0  0
0 0  0
0 0  0
0 0  0
0 0  0
0 0  0
0 0  0
0 0  0
0 0  0
0 0  0
0 0  0
0 0  0
0 0  0
0 0  0
0 0  0
0 0  0
0 0  0
0 0  0
0 0  0
0 0  0
0 0  0
0 0  0
0 0  0
0 0  0
0 0  0
0 0  0
0 0  0
0 0  0
0 0  0
0 0  0
0 0  0
0 0  0
0 0  0
0 0  0
0 0  0
0 0  0
0 0  0
0 0  0
0 0  0
0 0  0
0 0  0
0 0  0
0 0  0
0 0  0
0 0  0
0 0  0
0 0  0
0 0  0
0 0  0
0 0  0
0 0  0
0 0  0
0 0  0
0 0  0
0 0  0
0 0  0
0 0  0
0 0  0
0 0  0
0 0  0
0 0  0
0 0  0
0 0  0
0 0  0
0 0  0
0 0  0
0 0  0
0 0  0
0 0  0
0 0  0
0 0  0
0 0  0
0 0  0
0 0  0
0 0  0
0 0  0
0 0  0
0 0  0
0 0  0
0 0  0
0 0  0
0 0  0
0 0  0
0 0  0
0 0  0
0 0  0
0 0  0
0 0  0
0 0  0
0 0  0
0 0  0
0 0  0
0 0  0
0 0  0
0 0  0
0 0  0
0 0  0
0 0  0
0 0  0
0 0  0
0 0  0
0 0  0
0 0  0
0 0  0
0 0  0
0 0  0
0 0  0
0 0  0
0 0  0
0 0  0
0 0  0
0 0  0
0 0  0
0 0  0
0 0  0
0 0  0
0 0  0
0 0  0
0 0  0
0 0  0
0 0  0
0 0  0
0 0  0
0 0  0
0 0  0
0 0  0
0 0  0
0 0  0
0 0  0
0 0  0
0 0  0
0 0  0
0 0  0
0 0  0
0 0  0
0 0  0
0 0  0
0 0  0
0 0  0
0 0  0
0 0  0
0 0  0
0 0  0
0 0  0
0 0  0
0 0  0
0 0  0
0 0  0
0 0  0
0 0  0
0 0  0
0 0  0
0 0  0
0 0  0
0 0  0
0 0  0
0 0  0
0 0  0
0 0  0
0 0  0
0 0  0
0 0  0
0 0  0
0 0  0
0 0  0
0 0  0
0 0  0
0 0  0
0 0  0
0 0  0
0 0  0
0 0  0
0 0  0
0 0  0
0 0  0
0 0  0
0 0  0
0 0  0
0 0  0
0 0  0
0 0  0
0 0  0
0 0  0
0 0  0
0 0  0
0 0  0
0 0  0
0 0  0
0 0  0
0 0  0
0 0  0
0 0  0
0 0  0
0 0  0
0 0  0
0 0  0
0 0  0
0 0  0
0 0  0
0 0  0
0 0  0
0 0  0
0 0  0
0 0  0
0 0  0
0 0  0
0 0  0
0 0  0
0 0  0
0 0  0
0 0  0
0 0  0
0 0  0
0 0  0
0 0  0
0 0  0
0 0  0
0 0  0
0 0  0
0 0  0
0 0  0
0 0  0
0 0  0
0 0  0
0 0  0
0 0  0
0 0  0
0 0  0
0 0  0
0 0  0
0 0  0
0 0  0
0 0  0
0 0  0
0 0  0
0 0  0
0 0  0
0 0  0
0 0  0
0 0  0
0 0  0
0 0  0
0 0  0
0 0  0
0 0  0
0 0  0
0 0  0
0 0  0
0 0  0
0 0  0
0 0  0
0 0  0
0 0  0
0 0  0
0 0  0
0 0  0
0 0  0
0 0  0
0 0  0
0 0  0
0 0  0
0 0  0
0 0  0
0 0  0
0 0  0
0 0  0
0 0  0
0 0  0
0 0  0
0 0  0
0 0  0
0 0  0
0 0  0
0 0  0
0 0  0
0 0  0
0 0  0
0 0  0
0 0  0
0 0  0
0 0  0
0 0  0
0 0  0
0 0  0
0 0  0
0 0  0
0 0  0
0 0  0
0 0  0
0 0  0
0 0  0
0 0  0
0 0  0
0 0  0
0 0  0
0 0  0
0 0  0
0 0  0
0 0  0
0 0  0
0 0  0
0 0  0
0 0  0
0 0  0
0 0  0
0 0  0
0 0  0
0 0  0
0 0  0
0 0  0
0 0  0
0 0  0
0 0  0
0 0  0
0 0  0
0 0  0
0 0  0
0 0  0
0 0  0
0 0  0
0 0  0
0 0  0
0 0  0
0 0  0
0 0  0
0 0  0
0 0  0
0 0  0
0 0  0
0 0  0
0 0  0
0 0  0
0 0  0
0 0  0
0 0  0
0 0  0
0 0  0
0 0  0
0 0  0
0 0  0
0 0  0
0 0  0
0 0  0
0 0  0
0 0  0
0 0  0
0 0  0
0 0  0
0 0  0
0 0  0
0 0  0
0 0  0
0 0  0
0 0  0
0 0  0
0 0  0
0 0  0
0 0  0
0 0  0
0 0  0
0 0  0
0 0  0
0 0  0
0 0  0
0 0  0
0 0  0
0 0  0
0 0  0
0 0  0
0 0  0
0 0  0
0 0  0
0 0  0
0 0  0
0 0  0
0 0  0
0 0  0
0 0  0

SCALARS pressure double 1
LOOKUP_TABLE default
3.27547
3.27592
3.27685
3.27825
3.28008
3.2823
3.28484
3.28758
3.29043
3.29326
3.29595
3.29838
3.30045
3.30209
3.30323
3.30382
3.30383
3.30326
3.30207
3.30026
3.29784
3.29482
3.29123
3.28705
3.28229
3.27698
3.27115
3.26485
3.25814
3.25111
3.24389
3.23663
3.22951
3.22275
3.21657
3.2112
3.2068
3.20351
3.20137
3.20036
3.06989
3.07036
3.07133
3.0728
3.07473
3.07707
3.07973
3.08262
3.08561
3.08857
3.09137
3.09389
3.09603
3.0977
3.09885
3.09943
3.09943
3.09883
3.09763
3.0958
3.09337
3.09034
3.08675
3.08258
3.07782
3.07251
3.06666
3.06032
3.05355
3.04643
3.03908
3.03166
3.02434
3.01735
3.01093
3.00531
3.00069
2.99721
2.99492
2.99384
2.85866
2.85917
2.86023
2.86184
2.86396
2.86654
2.86948
2.87266
2.87594
2.87918
2.88222
2.88492
2.88718
2.88892
2.89009
2.89066
2.89062
2.88998
2.88873
2.88687
2.88441
2.88137
2.87779
2.87362
2.86887
2.86355
2.85767
2.85126
2.84437
2.83707
2.82947
2.82171
2.81399
2.80653
2.7996
2.79347
2.78835
2.78445
2.78185
2.7806
2.64172
2.64229
2.64348
2.6453
2.64772
2.65067
2.65405
2.6577
2.66146
2.66513
2.66853
2.67151
2.67395
2.67579
2.67697
2.67751
2.6774
2.67668
2.67535
2.67344
2.67094
2.66789
2.66432
2.66017
2.65544
2.65013
2.64422
2.63773
2.63067
2.6231
2.61512
2.60685
2.5985
2.59031
2.58258
2.57561
2.5697
2.5651
2.56198
2.56045
2.41894
2.41958
2.42094
2.42304
2.42586
2.42935
2.43336
2.4377
2.44214
2.44643
2.45035
2.45372
2.4564
2.45835
2.45953
2.45999
2.45976
2.4589
2.45746
2.45546
2.45292
2.44986
2.44631
2.44222
2.43755
2.43227
2.42635
2.41977
2.41252
2.40462
2.39613
2.38718
2.37796
2.36874
2.35985
2.35167
2.34458
2.33893
2.33502
2.33306
2.19015
2.19086
2.19239
2.19483
2.19819
2.2024
2.2073
2.2126
2.21799
2.22314
2.22776
2.23164
2.23462
2.23667
2.2378
2.23809
2.23766
2.23659
2.23498
2.23286
2.23026
2.22721
2.22373
2.21973
2.21517
2.20999
2.20412
2.19748
2.19004
2.18176
2.17266
2.16284
2.15248
2.14187
2.13141
2.12155
2.11279
2.10563
2.10054
2.09794
1.95511
1.95583
1.95753
1.96033
1.96434
1.96952
1.97564
1.98229
1.98899
1.99532
2.00087
2.0054
2.00874
2.01085
2.01182
2.01182
2.01105
2.00967
2.00781
2.00554
2.00289
1.99986
1.9965
1.99267
1.98831
1.98331
1.97757
1.97096
1.96337
1.9547
1.94492
1.93406
1.92226
1.90985
1.89729
1.88515
1.87408
1.86477
1.85795
1.85435
1.71343
1.71408
1.71582
1.71895
1.72374
1.73022
1.73807
1.74661
1.75513
1.76303
1.76982
1.77518
1.77892
1.78102
1.78166
1.78116
1.77986
1.77803
1.77584
1.77338
1.77068
1.76772
1.76454
1.76097
1.75692
1.75224
1.74676
1.74031
1.73268
1.72369
1.7132
1.70114
1.68759
1.67287
1.65757
1.64242
1.62821
1.61585
1.60642
1.60124
1.46447
1.46483
1.46639
1.4697
1.47537
1.48366
1.49405
1.50533
1.51638
1.52636
1.53477
1.54123
1.54543
1.54736
1.54735
1.54602
1.54394
1.54149
1.53888
1.53621
1.53349
1.53066
1.52774
1.52455
1.52095
1.51675
1.51171
1.5056
1.49813
1.48899
1.47785
1.46449
1.44886
1.43124
1.41239
1.39332
1.37496
1.35832
1.34485
1.33692
1.20694
1.20662
1.20765
1.21084
1.21745
1.22834
1.24273
1.25813
1.27267
1.28534
1.29589
1.30385
1.30862
1.31008
1.30888
1.30622
1.30302
1.29978
1.2967
1.29384
1.29116
1.28853
1.28596
1.28326
1.28025
1.27671
1.27233
1.26683
1.25981
1.2508
1.23924
1.22461
1.20655
1.18526
1.16179
1.13778
1.11424
1.0918
1.07184
1.05855
0.938027
0.936515
0.936722
0.939278
0.946767
0.961664
0.983046
1.0048
1.0239
1.0399
1.05324
1.06345
1.06905
1.06951
1.0661
1.06131
1.05662
1.05248
1.04896
1.046
1.04348
1.04115
1.03899
1.03685
1.03458
1.03185
1.02833
1.02372
1.01755
1.00915
0.997593
0.981929
0.961196
0.935173
0.905313
0.875385
0.846139
0.816583
0.785977
0.760452
0.652032
0.649372
0.649355
0.650093
0.657995
0.679237
0.714379
0.74592
0.77026
0.789697
0.806491
0.820644
0.827836
0.826303
0.818448
0.810386
0.803943
0.799006
0.795277
0.792433
0.790247
0.78831
0.786628
0.785053
0.783547
0.781692
0.779115
0.775598
0.770691
0.763521
0.752711
0.736742
0.713531
0.681096
0.640848
0.604593
0.571206
0.535353
0.488202
0.429359
0.341833
0.34071
0.343504
0.337181
0.344094
0.373608
0.439868
0.484513
0.512832
0.533805
0.554009
0.576701
0.587615
0.58204
0.56421
0.551725
0.543741
0.538579
0.535221
0.532914
0.531368
0.529948
0.528728
0.527581
0.526676
0.525514
0.523743
0.521157
0.517835
0.512589
0.503779
0.489294
0.465399
0.424373
0.361275
0.321586
0.290837
0.257038
0.193825
0.0270398
0.00988462
0.0118423
0.0285495
0.0072651
0.00642714
0.0242664
0.176424
0.229164
0.25454
0.270354
0.289698
0.335242
0.355107
0.341411
0.29686
0.282489
0.274436
0.270254
0.268446
0.267448
0.267055
0.266177
0.265409
0.264328
0.263411
0.262415
0.261282
0.258031
0.257102
0.254422
0.250255
0.240987
0.222924
0.175585
0.0388161
0.018851
0.00687471
0.00227526
-0.00484362
0
0
0
0
0
0
0
0.00783903
0.00163148
0.00138166
-0.00157137
-0.00826234
0.109091
0.14655
0.121169
-0.00983494
0.0012666
-0.00432155
-0.00642783
-0.0045531
-0.00330436
-0.00145111
-0.00250866
-0.00242548
-0.00400262
-0.00581741
-0.00783315
-0.00690562
-0.0191658
-0.0117002
-0.010958
-0.00419989
-0.00432156
0.00248097
0.00419766
0
0
0
0
0
0
0
0
0
0
0
0
0
0
0
0
0
-0.0428056
-0.00827024
-0.00181481
0
0
0
0
0
0
0
0
0
0
0
0
0
0
0
0
0
0
0
0
0
0
0
0
0
0
0
0
0
0
0
0
0
0
0
0
0
0
0
0
0
0
0
0
0
0
0
0
0
0
0
0
0
0
0
0
0
0
0
0
0
0
0
0
0
0
0
0
0
0
0
0
0
0
0
0
0
0
0
0
0
0
0
0
0
0
0
0
0
0
0
0
0
0
0
0
0
0
0
0
0
0
0
0
0
0
0
0
0
0
0
0
0
0
0
0
0
0
0
0
0
0
0
0
0
0
0
0
0
0
0
0
0
0
0
0
0
0
0
0
0
0
0
0
0
0
0
0
0
0
0
0
0
0
0
0
0
0
0
0
0
0
0
0
0
0
0
0
0
0
0
0
0
0
0
0
0
0
0
0
0
0
0
0
0
0
0
0
0
0
0
0
0
0
0
0
0
0
0
0
0
0
0
0
0
0
0
0
0
0
0
0
0
0
0
0
0
0
0
0
0
0
0
0
0
0
0
0
0
0
0
0
0
0
0
0
0
0
0
0
0
0
0
0
0
0
0
0
0
0
0
0
0
0
0
0
0
0
0
0
0
0
0
0
0
0
0
0
0
0
0
0
0
0
0
0
0
0
0
0
0
0
0
0
0
0
0
0
0
0
0
0
0
0
0
0
0
0
0
0
0
0
0
0
0
0
0
0
0
0
0
0
0
0
0
0
0
0
0
0
0
0
0
0
0
0
0
0
0
0
0
0
0
0
0
0
0
0
0
0
0
0
0
0
0
0
0
0
0
0
0
0
0
0
0
0
0
0
0
0
0
0
0
0
0
0
0
0
0
0
0
0
0
0
0
0
0
0
0
0
0
0
0
0
0
0
0
0
0
0
0
0
0
0
0
0
0
0
0
0
0
0
0
0
0
0
0
0
0
0
0
0
0
0
0
0
0
0
0
0
0
0
0
0
0
0
0
0
0
0
0
0
0
0
0
0
0
0
0
0
0
0
0
0
0
0
0
0
0
0
0
0
0
0
0
0
0
0
0
0
0
0
0
0
0
0
0
0
0
0
0
0
0
0
0
0
0
0
0
0
0
0
0
0
0
0
0
0
0
0
0
0
0
0
0
0
0
0
0
0
0
0
0
0
0
0
0
0
0
0
0
0
0
0
0
0
0
0
0
0
0
0
0
0
0
0
0
0
0
0
0
0
0
0
0
0
0
0
0
0
0
0
0
0
0
0
0
0
0
0
0
0
0
0
0
0
0
0
0
0
0
0
0
0
0
0
0
0
0
0
0
0
0
0
0
0
0
0
0
0
0
0
0
0
0
0
SCALARS rhs double 1
LOOKUP_TABLE default
-5.24919
-5.19409
-5.19207
-5.19034
-5.18847
-5.18683
-5.18563
-5.18428
-5.18359
-5.18299
-5.18284
-5.18292
-5.18324
-5.18381
-5.18448
-5.18526
-5.18603
-5.18676
-5.18733
-5.18766
-5.18743
-5.18625
-5.18688
-5.18612
-5.1852
-5.18418
-5.18312
-5.18204
-5.18095
-5.17989
-5.17888
-5.17797
-5.1773
-5.17703
-5.17742
-5.17876
-5.18126
-5.18479
-5.18855
-5.19359
-0.194885
-0.142583
-0.141432
-0.140267
-0.138992
-0.138105
-0.136744
-0.136077
-0.135376
-0.13525
-0.13521
-0.1355
-0.13593
-0.136502
-0.13726
-0.138018
-0.138834
-0.13961
-0.140219
-0.140628
-0.14049
-0.139438
-0.140292
-0.13974
-0.139073
-0.138336
-0.137577
-0.136815
-0.136064
-0.135336
-0.134658
-0.134089
-0.133737
-0.13369
-0.134424
-0.136217
-0.1393
-0.143473
-0.147825
-0.153262
-0.191772
-0.141754
-0.140595
-0.139422
-0.138404
-0.137164
-0.135945
-0.13522
-0.134529
-0.134353
-0.134431
-0.134611
-0.135075
-0.135624
-0.136331
-0.137123
-0.137949
-0.13871
-0.139361
-0.139763
-0.139571
-0.138441
-0.139326
-0.138722
-0.138018
-0.137271
-0.136514
-0.135765
-0.135031
-0.134326
-0.133679
-0.133155
-0.132875
-0.132856
-0.133714
-0.135628
-0.138782
-0.142942
-0.147208
-0.152651
-0.18907
-0.141736
-0.140584
-0.139564
-0.138449
-0.136991
-0.135947
-0.134936
-0.134331
-0.134066
-0.134167
-0.134305
-0.134664
-0.135217
-0.13586
-0.136646
-0.137474
-0.138245
-0.138901
-0.1393
-0.139029
-0.137778
-0.138698
-0.138037
-0.137288
-0.136528
-0.135783
-0.135059
-0.134356
-0.133685
-0.133082
-0.132624
-0.132452
-0.132507
-0.133558
-0.135651
-0.138912
-0.143057
-0.147209
-0.152681
-0.186885
-0.142572
-0.141538
-0.140578
-0.139168
-0.137754
-0.136457
-0.135344
-0.134543
-0.134347
-0.134285
-0.134325
-0.134572
-0.135016
-0.135616
-0.136344
-0.137134
-0.137909
-0.138542
-0.13891
-0.138544
-0.137118
-0.138103
-0.137384
-0.136618
-0.135871
-0.135162
-0.134482
-0.133821
-0.133192
-0.132641
-0.132268
-0.132218
-0.132403
-0.133682
-0.135985
-0.13936
-0.143474
-0.147489
-0.153017
-0.186175
-0.14513
-0.144237
-0.143079
-0.141456
-0.139829
-0.13814
-0.136757
-0.135627
-0.135473
-0.135106
-0.13489
-0.134952
-0.135213
-0.135674
-0.136273
-0.136958
-0.137645
-0.138197
-0.138479
-0.138028
-0.136345
-0.137474
-0.136754
-0.136043
-0.135381
-0.13476
-0.134154
-0.133549
-0.132966
-0.132473
-0.132196
-0.132263
-0.132595
-0.134097
-0.13658
-0.140016
-0.144055
-0.147909
-0.153521
-0.189143
-0.151289
-0.15031
-0.14867
-0.146615
-0.144302
-0.142024
-0.139923
-0.138232
-0.138209
-0.137122
-0.136487
-0.136172
-0.136129
-0.136284
-0.136591
-0.137006
-0.137426
-0.137747
-0.137849
-0.137383
-0.135344
-0.136768
-0.136197
-0.135703
-0.135268
-0.134838
-0.13437
-0.133853
-0.13333
-0.132911
-0.13276
-0.132948
-0.133339
-0.135017
-0.137547
-0.140863
-0.144682
-0.148307
-0.154003
-0.201026
-0.165369
-0.1636
-0.160598
-0.157073
-0.153349
-0.149744
-0.146296
-0.143615
-0.143737
-0.141263
-0.139941
-0.139007
-0.13839
-0.13796
-0.137661
-0.137468
-0.137311
-0.137152
-0.136945
-0.136607
-0.134104
-0.136081
-0.135929
-0.135952
-0.136009
-0.135971
-0.135796
-0.135483
-0.13512
-0.134882
-0.135007
-0.135355
-0.135632
-0.137428
-0.139708
-0.142435
-0.145634
-0.148757
-0.154462
-0.234217
-0.197269
-0.192641
-0.185292
-0.177386
-0.170345
-0.163986
-0.157984
-0.155523
-0.152203
-0.149016
-0.146631
-0.144715
-0.143068
-0.141514
-0.140042
-0.138725
-0.137521
-0.136545
-0.135894
-0.135651
-0.133368
-0.135481
-0.136388
-0.137428
-0.138458
-0.139228
-0.139775
-0.140094
-0.140308
-0.140652
-0.141542
-0.142155
-0.142239
-0.144254
-0.145686
-0.146688
-0.148356
-0.15019
-0.155771
-0.315046
-0.265687
-0.252685
-0.234007
-0.214024
-0.198617
-0.187326
-0.177149
-0.176268
-0.166906
-0.162276
-0.158476
-0.154984
-0.151532
-0.147839
-0.144196
-0.141186
-0.138358
-0.136191
-0.134989
-0.135076
-0.133223
-0.135467
-0.137907
-0.140862
-0.143834
-0.146258
-0.148638
-0.150837
-0.152937
-0.154904
-0.157616
-0.15845
-0.159156
-0.161994
-0.161106
-0.157612
-0.156442
-0.155352
-0.161555
-0.4802
-0.382987
-0.352457
-0.317628
-0.267753
-0.232574
-0.216483
-0.20638
-0.20103
-0.187487
-0.182699
-0.177307
-0.171362
-0.165037
-0.157329
-0.149605
-0.145051
-0.140145
-0.13632
-0.134214
-0.135215
-0.133216
-0.135993
-0.139876
-0.146647
-0.153509
-0.158889
-0.165452
-0.17218
-0.179338
-0.184513
-0.190194
-0.190616
-0.195831
-0.201284
-0.192708
-0.178337
-0.176014
-0.169835
-0.185663
-0.680149
-0.470327
-0.441711
-0.412748
-0.29359
-0.23182
-0.236067
-0.243504
-0.217534
-0.208585
-0.20976
-0.203071
-0.19383
-0.184787
-0.170131
-0.153097
-0.150511
-0.143786
-0.13724
-0.132416
-0.135098
-0.131888
-0.135816
-0.140133
-0.15481
-0.168601
-0.177484
-0.192763
-0.206328
-0.223441
-0.229929
-0.237134
-0.241601
-0.260363
-0.2764
-0.23205
-0.195831
-0.207584
-0.204729
-0.306045
-0.573549
-0.403865
-0.452337
-0.0910814