# vtk DataFile Version 4.0
Nusif Fluid VTK output
ASCII
DATASET STRUCTURED_POINTS
DIMENSIONS 40 30 1
ORIGIN 0 0 0 
SPACING 0.2 0.2 1
POINT_DATA 1200 

VECTORS velocity double
0.00182349 -0.00198975  0
0.00545163 -0.00202406  0
0.00912208 -0.00208652  0
0.0129334 -0.00216779  0
0.0169084 -0.00225368  0
0.0210396 -0.00232602  0
0.025282 -0.00236609  0
0.02955 -0.00235486  0
0.033722 -0.00227312  0
0.0376467 -0.0021091  0
0.0411521 -0.00185627  0
0.0440634 -0.00151703  0
0.0462195 -0.00110335  0
0.0474915 -0.000635236  0
0.0477987 -0.000139818  0
0.0471164 0.000352416  0
0.0454798 0.000813104  0
0.0429778 0.0012172  0
0.039743 0.00154501  0
0.0359442 0.00178048  0
0.0317811 0.00190946  0
0.0274775 0.0019215  0
0.0232722 0.00181174  0
0.0194074 0.00158219  0
0.0161119 0.00124388  0
0.0135817 0.000818387  0
0.0119612 0.000336077  0
0.0113298 -0.000168423  0
0.011698 -0.000661168  0
0.0130138 -0.00111352  0
0.0151762 -0.00150564  0
0.0180531 -0.00182647  0
0.0214938 -0.00206837  0
0.0253185 -0.00220897  0
0.0292399 -0.00216343  0
0.0326526 -0.00169852  0
0.0342828 -0.000379905  0
0.0320073 0.00220811  0
0.0236 0.0057526  0
0.00881213 0.00858923  0
0.00178919 -0.00598887  0
0.00535504 -0.00609593  0
0.00897885 -0.00629272  0
0.012767 -0.00654954  0
0.0167512 -0.00682318  0
0.0209284 -0.00705976  0
0.0252545 -0.0071996  0
0.0296443 -0.00718108  0
0.0339693 -0.00694896  0
0.0380652 -0.00646206  0
0.0417458 -0.00570027  0
0.044818 -0.00467027  0
0.0471029 -0.00340766  0
0.0484567 -0.00197565  0
0.0487881 -0.000459112  0
0.0480714 0.00104767  0
0.0463468 0.00245471  0
0.0437116 0.00368721  0
0.0403074 0.00468775  0
0.0363092 0.00540824  0
0.0319224 0.0058052  0
0.0273796 0.00584665  0
0.0229322 0.00551519  0
0.0188386 0.0048145  0
0.0153472 0.00377755  0
0.0126732 0.00247064  0
0.0109738 0.000988308  0
0.010332 -0.000560087  0
0.0107524 -0.00206759  0
0.0121682 -0.00344551  0
0.014459 -0.00463205  0
0.0174715 -0.00559297  0
0.021034 -0.00630629  0
0.0249462 -0.00670665  0
0.0289038 -0.00654167  0
0.0322927 -0.00511733  0
0.0338527 -0.00114557  0
0.0315173 0.00659177  0
0.0231673 0.0171344  0
0.00863275 0.0255384  0
0.00171628 -0.009938  0
0.00514772 -0.010132  0
0.00866894 -0.0104917  0
0.0124038 -0.010966  0
0.0163995 -0.0114804  0
0.0206646 -0.0119413  0
0.0251622 -0.0122412  0
0.0298023 -0.0122698  0
0.0344429 -0.0119276  0
0.0388975 -0.0111373  0
0.0429464 -0.00985937  0
0.0463587 -0.00810198  0
0.0489169 -0.00592616  0
0.0504433 -0.00344534  0
0.0508266 -0.000813166  0
0.0500373 0.00179843  0
0.0481286 0.00422747  0
0.0452199 0.00634796  0
0.0414701 0.00807106  0
0.0370645 0.00931927  0
0.0322195 0.0100169  0
0.0271839 0.0101051  0
0.0222338 0.00954698  0
0.0176629 0.00834088  0
0.0137626 0.00653799  0
0.010789 0.0042546  0
0.00892845 0.00166272  0
0.00827256 -0.00103685  0
0.00881123 -0.0036495  0
0.0104462 -0.0060146  0
0.0130163 -0.00802322  0
0.0163231 -0.0096187  0
0.020152 -0.0107679  0
0.0242657 -0.0113663  0
0.0283325 -0.0110015  0
0.0317292 -0.0085379  0
0.0332248 -0.00187483  0
0.0308432 0.0109443  0
0.0226011 0.0282808  0
0.00840498 0.0420293  0
0.0015947 -0.0136993  0
0.00480067 -0.0140057  0
0.00814462 -0.0145786  0
0.0117783 -0.0153447  0
0.0157762 -0.0161947  0
0.0201679 -0.0169865  0
0.0249263 -0.017556  0
0.0299584 -0.0177327  0
0.0351024 -0.0173569  0
0.0401344 -0.0163032  0
0.044783 -0.0145015  0
0.0487541 -0.0119552  0
0.0517641 -0.00875391  0
0.0535785 -0.00507252  0
0.0540499 -0.00115529  0
0.0531442 0.00272037  0
0.0509417 0.00630078  0
0.0476027 0.0094065  0
0.0433144 0.0119349  0
0.0382724 0.0137876  0
0.0327042 0.0148472  0
0.0268834 0.0150172  0
0.0211274 0.0142281  0
0.0157881 0.0124584  0
0.011229 0.0097699  0
0.0077785 0.00633847  0
0.00567253 0.00243856  0
0.00501513 -0.00160618  0
0.00577163 -0.00548245  0
0.00778936 -0.00893984  0
0.0108349 -0.0118167  0
0.0146373 -0.0140363  0
0.0189183 -0.0155614  0
0.0233901 -0.0162591  0
0.0276865 -0.0155724  0
0.0311754 -0.0119527  0
0.0326609 -0.00254045  0
0.0302616 0.015292  0
0.0221219 0.0392165  0
0.00821413 0.0580989  0
0.00140928 -0.0171609  0
0.00426738 -0.0176157  0
0.00732926 -0.0184753  0
0.0107875 -0.0196432  0
0.0147576 -0.02097  0
0.0193033 -0.0222564  0
0.0244161 -0.0232671  0
0.0300015 -0.0237505  0
0.0358729 -0.0234674  0
0.0417542 -0.022221  0
0.0472977 -0.0198922  0
0.0521141 -0.0164697  0
0.0558182 -0.0120725  0
0.0580858 -0.00695582  0
0.0587123 -0.00149068  0
0.0576567 0.00389535  0
0.0550417 0.00882151  0
0.0510923 0.0130522  0
0.0460339 0.0165139  0
0.0400605 0.0191027  0
0.0334116 0.0206285  0
0.0264137 0.0209346  0
0.0194574 0.0199044  0
0.0129861 0.0174758  0
0.00747377 0.0137083  0
0.00335322 0.00885712  0
0.00093031 0.00333475  0
0.000327642 -0.00235657  0
0.0014669 -0.00773966  0
0.00410339 -0.0124464  0
0.00789367 -0.0162544  0
0.0124601 -0.0190754  0
0.0174356 -0.0208862  0
0.0224689 -0.021546  0
0.027157 -0.0203759  0
0.0308593 -0.0154458  0
0.0324086 -0.00318712  0
0.0300021 0.0196403  0
0.021893 0.0500133  0
0.00811909 0.0738799  0
0.00113908 -0.0201748  0
0.0034849 -0.0208244  0
0.00611621 -0.0220668  0
0.00928302 -0.0237861  0
0.0131625 -0.0257884  0
0.0178704 -0.027805  0
0.0234319 -0.029508  0
0.0297579 -0.0305384  0
0.0366324 -0.0305445  0
0.0437121 -0.029226  0
0.0505441 -0.0263852  0
0.0566048 -0.0219776  0
0.0613636 -0.0161527  0
0.0643676 -0.00927353  0
0.0653295 -0.00188884  0
0.0641852 0.0053652  0
0.0610803 0.0119433  0
0.0563048 0.0175267  0
0.0501266 0.0221476  0
0.0427083 0.0257327  0
0.0343249 0.0279035  0
0.0254662 0.02839  0
0.0167006 0.0270462  0
0.00862217 0.0237605  0
0.00184961 0.018587  0
-0.0030784 0.0119054  0
-0.00579635 0.00430576  0
-0.00617411 -0.00346579  0
-0.00436293 -0.0106974  0
-0.000743424 -0.0168604  0
0.00417616 -0.0216653  0
0.00986593 -0.0250346  0
0.0158445 -0.0269939  0
0.0216893 -0.0274286  0
0.0269628 -0.0255666  0
0.031017 -0.0191226  0
0.0327015 -0.00385451  0
0.0302637 0.0240421  0
0.0220458 0.0608293  0
0.00816507 0.0896091  0
0.000758575 -0.0225471  0
0.00237309 -0.023443  0
0.00436536 -0.0251852  0
0.00706373 -0.0276487  0
0.0107365 -0.0305954  0
0.0155814 -0.0336704  0
0.02168 -0.0364242  0
0.0289622 -0.0383537  0
0.0371837 -0.0389505  0
0.0459199 -0.037763  0
0.0545837 -0.0344727  0
0.0624788 -0.0289762  0
0.0688928 -0.0214586  0
0.0732208 -0.012433  0
0.0750705 -0.00267558  0
0.0742734 0.00695822  0
0.0707953 0.0157978  0
0.0648729 0.0232346  0
0.0568662 0.0294891  0
0.0468488 0.0346918  0
0.0352062 0.0378363  0
0.0229778 0.0384114  0
0.0112462 0.0363906  0
0.000902135 0.0317089  0
-0.00729175 0.0244757  0
-0.0128432 0.0153675  0
-0.0154947 0.00508701  0
-0.0151662 -0.00532223  0
-0.0121188 -0.0148233  0
-0.0069237 -0.0226714  0
-0.000312516 -0.028506  0
0.00698501 -0.0323011  0
0.01435 -0.0341898  0
0.0212904 -0.0341358  0
0.0273492 -0.0313091  0
0.0318824 -0.0230845  0
0.0337447 -0.00455585  0
0.0312036 0.0286067  0
0.0226739 0.0718973  0
0.00838204 0.105598  0
0.000239884 -0.02403  0
0.000838801 -0.0252172  0
0.00190017 -0.0275843  0
0.00386081 -0.0310304  0
0.00712712 -0.0352764  0
0.0120252 -0.039858  0
0.0187282 -0.0441658  0
0.0272076 -0.0475034  0
0.0372026 -0.0491489  0
0.048204 -0.0484356  0
0.0594771 -0.0448723  0
0.0701453 -0.038277  0
0.0793333 -0.0288983  0
0.0863322 -0.017461  0
0.0906208 -0.00492752  0
0.0916297 0.00785606  0
0.0883278 0.0205364  0
0.0805022 0.0311006  0
0.0690641 0.0399245  0
0.0538303 0.0483648  0
0.0353176 0.0531769  0
0.0161532 0.0533236  0
-0.00105392 0.0492787  0
-0.0146569 0.0416305  0
-0.0238792 0.0308337  0
-0.028921 0.0184687  0
-0.0302261 0.00480864  0
-0.0279238 -0.0088078  0
-0.0224692 -0.0209697  0
-0.0146636 -0.0306545  0
-0.00550161 -0.0374234  0
0.00405925 -0.0413681  0
0.0132657 -0.0428192  0
0.0215836 -0.0418886  0
0.028575 -0.0377297  0
0.0336356 -0.0273803  0
0.0356387 -0.00524762  0
0.0328566 0.0335001  0
0.0237741 0.0834953  0
0.00876284 0.122182  0
-0.000444921 -0.0243199  0
-0.00122406 -0.0258046  0
-0.00150723 -0.0289011  0
-0.000699879 -0.0336092  0
0.00182412 -0.0396175  0
0.00658947 -0.0463118  0
0.0139084 -0.0528673  0
0.02383 -0.0583387  0
0.0361117 -0.0617282  0
0.0501947 -0.0620806  0
0.0652405 -0.0586882  0
0.0802849 -0.0513176  0
0.09445 -0.0403569  0
0.107097 -0.0267963  0
0.117368 -0.0113012  0
0.123563 0.00587593  0
0.121438 0.0267918  0
0.109531 0.0434265  0
0.0914584 0.0559572  0
0.0660762 0.0717964  0
0.033331 0.0798527  0
-0.000573533 0.0785685  0
-0.0286725 0.0681944  0
-0.0469648 0.0534658  0
-0.0555366 0.0356508  0
-0.0570792 0.0190945  0
-0.0540174 0.0012843  0
-0.0468655 -0.0158769  0
-0.0365803 -0.0307777  0
-0.0242595 -0.0421085  0
-0.011166 -0.0493586  0
0.00155226 -0.0528443  0
0.0130886 -0.0532168  0
0.0229615 -0.0508118  0
0.0308401 -0.0448058  0
0.0362483 -0.0319016  0
0.0381639 -0.0057729  0
0.0349236 0.0389203  0
0.0250999 0.0958544  0
0.00921295 0.139594  0
-0.00133155 -0.0230495  0
-0.00397243 -0.0247265  0
-0.00622578 -0.0285744  0
-0.007243 -0.0348595  0
-0.00603205 -0.0432376  0
-0.00177094 -0.0528556  0
0.00603804 -0.0625909  0
0.0175707 -0.0712111  0
0.0327009 -0.0774119  0
0.0509633 -0.0798888  0
0.0715929 -0.0777045  0
0.0938041 -0.0707085  0
0.116999 -0.0594797  0
0.140757 -0.0452329  0
0.162689 -0.0262259  0
0.179415 -0.00327463  0
0.179546 0.0367864  0
0.158303 0.0654293  0
0.128161 0.081009  0
0.085769 0.113346  0
0.0279575 0.12768  0
-0.0344652 0.125891  0
-0.0839417 0.0972829  0
-0.10813 0.0657081  0
-0.111711 0.0344155  0
-0.104913 0.0139244  0
-0.0929679 -0.00970012  0
-0.0758093 -0.0303454  0
-0.0562285 -0.0473183  0
-0.0359825 -0.0592765  0
-0.0166975 -0.0657091  0
0.00037287 -0.0674209  0
0.0146169 -0.0655576  0
0.0258602 -0.0607229  0
0.0340728 -0.0521207  0
0.039101 -0.0361572  0
0.0402998 -0.0057653  0
0.0363406 0.044979  0
0.0259075 0.10892  0
0.00947494 0.157715  0
-0.00253701 -0.019699  0
-0.00784472 -0.0212156  0
-0.0131563 -0.0256598  0
-0.0171673 -0.0338868  0
-0.0182717 -0.0454584  0
-0.0152412 -0.0590698  0
-0.00739803 -0.0731744  0
0.00561909 -0.0863252  0
0.0240648 -0.0970242  0
0.0479578 -0.103585  0
0.0769136 -0.104749  0
0.110622 -0.100742  0
0.148485 -0.0916643  0
0.189979 -0.0794587  0
0.226421 -0.0515194  0
0.257051 -0.0264754  0
0.262451 0.0533085  0
0.224194 0.107252  0
0.170389 0.121978  0
0.104272 0.179733  0
0.0192279 0.203001  0
-0.0842817 0.215368  0
-0.172003 0.14389  0
-0.200587 0.0707498  0
-0.189359 0.02058  0
-0.172446 0.00291196  0
-0.150297 -0.033909  0
-0.117048 -0.0576814  0
-0.0824257 -0.0753277  0
-0.0493048 -0.0857783  0
-0.0204602 -0.0884814  0
0.00237349 -0.085696  0
0.0191868 -0.0794818  0
0.0306808 -0.0706769  0
0.0375461 -0.0583847  0
0.0403469 -0.0388617  0
0.0394868 -0.00453861  0
0.0347377 0.0513214  0
0.024772 0.121837  0
0.0091214 0.175741  0
-0.00454012 -0.0131519  0
-0.0143684 -0.0137279  0
-0.0249584 -0.0183879  0
-0.0341332 -0.0291195  0
-0.0393232 -0.0450816  0
-0.0388535 -0.0640967  0
-0.0320362 -0.0839594  0
-0.0182958 -0.103452  0
0.00363662 -0.121433  0
0.0350368 -0.13563  0
0.0756786 -0.143465  0
0.125414 -0.146633  0
0.180623 -0.139994  0
0.241901 -0.135032  0
0.280036 -0.0716597  0
0.307685 -0.0657579  0
0.327645 0.0660933  0
0.282051 0.177176  0
0.175882 0.211166  0
0.077606 0.254379  0
0.0008182 0.28964  0
-0.114049 0.346572  0
-0.243355 0.228878  0
-0.276216 0.0460613  0
-0.239164 -0.00414181  0
-0.231827 0.00225799  0
-0.211539 -0.0768246  0
-0.160079 -0.1006  0
-0.10968 -0.11856  0
-0.0604374 -0.126049  0
-0.0184973 -0.120138  0
0.0112249 -0.10774  0
0.0292201 -0.0933915  0
0.0379907 -0.0781763  0
0.0397995 -0.0607034  0
0.0367061 -0.0373943  0
0.0315213 -0.00110679  0
0.0267773 0.0562356  0
0.0203314 0.132188  0
0.00796827 0.192258  0
-0.00878244 -0.000369777  0
-0.02782 0.00124269  0
-0.0484293 -0.00330707  0
-0.0667436 -0.017858  0
-0.0787841 -0.0402625  0
-0.0826123 -0.0667135  0
-0.0780736 -0.0938551  0
-0.0646195 -0.12191  0
-0.0389824 -0.151707  0
0.00240409 -0.179305  0
0.0559385 -0.195116  0
0.12117 -0.211079  0
0.182925 -0.193646  0
0.252492 -0.213349  0
0.266418 -0.0462536  0
0.212323 -0.0653009  0
0.186125 0.0713117  0
0.183523 0.219592  0
0.140691 0.247112  0
0.0491132 0.144595  0
-0.0643177 0.165809  0
-0.130335 0.352223  0
-0.131667 0.284984  0
-0.137941 0.0284931  0
-0.167269 0.00514531  0
-0.231107 0.0489067  0
-0.232153 -0.143584  0
-0.168504 -0.150095  0
-0.117837 -0.171275  0
-0.0596689 -0.181879  0
-0.00424984 -0.162797  0
0.0325022 -0.132692  0
0.0488583 -0.103933  0
0.0497445 -0.0784356  0
0.0403753 -0.0540318  0
0.0259794 -0.0277273  0
0.0137828 0.00545651  0
0.0116073 0.0554394  0
0.0143403 0.135546  0
0.00740118 0.207052  0
-0.0179453 0.0258076  0
-0.0559081 0.0309405  0
-0.0951869 0.0257316  0
-0.1287 0.00377922  0
-0.150245 -0.0294641  0
-0.15783 -0.0672503  0
-0.153567 -0.103279  0
-0.139275 -0.14139  0
-0.108651 -0.189638  0
-0.0550129 -0.237534  0
0.00240884 -0.248977  0
0.0661731 -0.287337  0
0.110924 -0.224743  0
0.116585 -0.258052  0
0.189227 -0.136903  0
0.167489 -0.0208527  0
0.0554762 0.036957  0
0.110684 0.109796  0
0.0917614 0.109796  0
0 0  0
0 0  0
-0.0658336 0.142492  0
-0.00655859 0.142492  0
-0.00954883 0.0173832  0
-0.194731 0.0141001  0
-0.180834 -0.0469598  0
-0.109855 -0.18361  0
-0.099146 -0.185012  0
-0.0767208 -0.210035  0
-0.0339597 -0.244911  0
0.0262604 -0.216533  0
0.0687543 -0.15931  0
0.0818688 -0.107903  0
0.0709635 -0.065584  0
0.0446959 -0.0323911  0
0.0151706 -0.00659259  0
-0.00581365 0.0163538  0
-0.00360558 0.0433551  0
0.0141515 0.125979  0
0.0113377 0.225208  0
-0.0335414 0.0767429  0
-0.103104 0.0864038  0
-0.171476 0.0767691  0
-0.224949 0.0385709  0
-0.253435 -0.0153748  0
-0.254608 -0.0737274  0
-0.239819 -0.117  0
-0.2224 -0.160515  0
-0.190121 -0.234553  0
-0.13189 -0.305609  0
-0.0886021 -0.282457  0
-0.0800866 -0.326709  0
0.0320731 -0.278556  0
0.130409 -0.129026  0
0.0582923 -0.129026  0
0 0  0
0 0  0
0 0  0
0 0  0
0 0  0
0 0  0
0 0  0
0 0  0
0 0  0
0 0  0
-0.0549273 -0.0918051  0
-0.103799 -0.0918051  0
-0.0800752 -0.0978605  0
-0.00901862 -0.249001  0
0.0443693 -0.276251  0
0.070464 -0.272372  0
0.108032 -0.184677  0
0.120075 -0.10882  0
0.104703 -0.0395041  0
0.0672201 0.0041508  0
0.029895 0.0225787  0
-0.00359615 0.040519  0
-0.0113293 0.0235753  0
0.0170708 0.0984599  0
0.0177479 0.253722  0
-0.0523098 0.162029  0
-0.158501 0.175732  0
-0.256276 0.152441  0
-0.32203 0.0809838  0
-0.342882 -0.00959613  0
-0.319219 -0.103142  0
-0.28611 -0.136329  0
-0.269133 -0.176139  0
-0.251029 -0.269879  0
-0.239448 -0.340662  0
-0.141899 -0.315818  0
-0.0622184 -0.163355  0
-0.0400433 -0.163355  0
0 0  0
0 0  0
0 0  0
0 0  0
0 0  0
0 0  0
0 0  0
0 0  0
0 0  0
0 0  0
0 0  0
0 0  0
0 0  0
0 0  0
0 0  0
0.0221847 -0.138125  0
0.0809381 -0.287506  0
0.117507 -0.298762  0
0.119263 -0.198214  0
0.129588 -0.11854  0
0.128554 -0.0145065  0
0.108148 0.0359345  0
0.0981663 0.0369887  0
0.0490549 0.107582  0
-0.0245566 0.0369986  0
-0.0415595 0.0730813  0
-0.0174421 0.253751  0
-0.104834 0.318881  0
-0.255904 0.275563  0
-0.322893 0.216804  0
-0.351723 0.110641  0
-0.356935 -0.0137634  0
-0.354071 -0.126075  0
-0.296925 -0.13643  0
-0.201795 -0.0913301  0
-0.172028 -0.14073  0
-0.209847 -0.170331  0
-0.119724 -0.170331  0
0 0  0
0 0  0
0 0  0
0 0  0
0 0  0
0 0  0
0 0  0
0 0  0
0 0  0
0 0  0
0 0  0
0 0  0
0 0  0
0 0  0
0 0  0
0 0  0
0 0  0
0 0  0
0.0587534 -0.149381  0
0.0681114 -0.149381  0
0.0702579 -0.163695  0
0.1218 -0.127419  0
0.125512 -0.00920481  0
0.140097 0.035294  0
0.158434 0.0281368  0
0.1659 0.157218  0
0.0559678 0.108948  0
-0.129375 0.0332029  0
-0.102393 0.118154  0
-0.0538762 0.211857  0
-0.162825 0.1609  0
-0.221352 0.118778  0
-0.22463 0.059359  0
-0.234539 -0.00831391  0
-0.299347 -0.0630375  0
-0.177035 -0.0630375  0
0 0  0
0 0  0
0 0  0
0 0  0
0 0  0
0 0  0
0 0  0
0 0  0
0 0  0
0 0  0
0 0  0
0 0  0
0 0  0
0 0  0
0 0  0
0 0  0
0 0  0
0 0  0
0 0  0
0 0  0
0 0  0
0 0  0
0 0  0
0 0  0
0.0608999 -0.0637097  0
0.134505 -0.0703272  0
0.147211 -0.013235  0
0.148694 0.0226446  0
0.150177 0.0203735  0
0.158038 0.088796  0
0.0829498 0.0786092  0
0 0  0
0 0  0
0 0  0
0 0  0
0 0  0
0 0  0
0 0  0
0 0  0
0 0  0
0 0  0
0 0  0
0 0  0
0 0  0
0 0  0
0 0  0
0 0  0
0 0  0
0 0  0
0 0  0
0 0  0
0 0  0
0 0  0
0 0  0
0 0  0
0 0  0
0 0  0
0 0  0
0 0  0
0 0  0
0 0  0
0 0  0
0 0  0
0 0  0
0 0  0
0.0736055 -0.00661752  0
0.130013 -0.00661752  0
0.13189 0.0105808  0
0.150571 0.0101867  0
0.0750885 0.0101867  0
0 0  0
0 0  0
0 0  0
0 0  0
0 0  0
0 0  0
0 0  0
0 0  0
0 0  0
0 0  0
0 0  0
0 0  0
0 0  0
0 0  0
0 0  0
0 0  0
0 0  0
0 0  0
0 0  0
0 0  0
0 0  0
0 0  0
0 0  0
0 0  0
0 0  0
0 0  0
0 0  0
0 0  0
0 0  0
0 0  0
0 0  0
0 0  0
0 0  0
0 0  0
0 0  0
0 0  0
0 0  0
0 0  0
0 0  0
0 0  0
0 0  0
0 0  0
0 0  0
0 0  0
0 0  0
0 0  0
0 0  0
0 0  0
0 0  0
0 0  0
0 0  0
0 0  0
0 0  0
0 0  0
0 0  0
0 0  0
0 0  0
0 0  0
0 0  0
0 0  0
0 0  0
0 0  0
0 0  0
0 0  0
0 0  0
0 0  0
0 0  0
0 0  0
0 0  0
0 0  0
0 0  0
0 0  0
0 0  0
0 0  0
0 0  0
0 0  0
0 0  0
0 0  0
0 0  0
0 0  0
0 0  0
0 0  0
0 0  0
0 0  0
0 0  0
0 0  0
0 0  0
0 0  0
0 0  0
0 0  0
0 0  0
0 0  0
0 0  0
0 0  0
0 0  0
0 0  0
0 0  0
0 0  0
0 0  0
0 0  0
0 0  0
0 0  0
0 0  0
0 0  0
0 0  0
0 0  0
0 0  0
0 0  0
0 0  0
0 0  0
0 0  0
0 0  0
0 0  0
0 0  0
0 0  0
0 0  0
0 0  0
0 0  0
0 0  0
0 0  0
0 0  0
0 0  0
0 0  0
0 0  0
0 0  0
0 0  0
0 0  0
0 0  0
0 0  0
0 0  0
0 0  0
0 0  0
0 0  0
0 0  0
0 0  0
0 0  0
0 0  0
0 0  0
0 0  0
0 0  0
0 0  0
0 0  0
0 0  0
0 0  0
0 0  0
0 0  0
0 0  0
0 0  0
0 0  0
0 0  0
0 0  0
0 0  0
0 0  0
0 0  0
0 0  0
0 0  0
0 0  0
0 0  0
0 0  0
0 0  0
0 0  0
0 0  0
0 0  0
0 0  0
0 0  0
0 0  0
0 0  0
0 0  0
0 0  0
0 0  0
0 0  0
0 0  0
0 0  0
0 0  0
0 0  0
0 0  0
0 0  0
0 0  0
0 0  0
0 0  0
0 0  0
0 0  0
0 0  0
0 0  0
0 0  0
0 0  0
0 0  0
0 0  0
0 0  0
0 0  0
0 0  0
0 0  0
0 0  0
0 0  0
0 0  0
0 0  0
0 0  0
0 0  0
0 0  0
0 0  0
0 0  0
0 0  0
0 0  0
0 0  0
0 0  0
0 0  0
0 0  0
0 0  0
0 0  0
0 0  0
0 0  0
0 0  0
0 0  0
0 0  0
0 0  0
0 0  0
0 0  0
0 0  0
0 0  0
0 0  0
0 0  0
0 0  0
0 0  0
0 0  0
0 0  0
0 0  0
0 0  0
0 0  0
0 0  0
0 0  0
0 0  0
0 0  0
0 0  0
0 0  0
0 0  0
0 0  0
0 0  0
0 0  0
0 0  0
0 0  0
0 0  0
0 0  0
0 0  0
0 0  0
0 0  0
0 0  0
0 0  0
0 0  0
0 0  0
0 0  0
0 0  0
0 0  0
0 0  0
0 0  0
0 0  0
0 0  0
0 0  0
0 0  0
0 0  0
0 0  0
0 0  0
0 0  0
0 0  0
0 0  0
0 0  0
0 0  0
0 0  0
0 0  0
0 0  0
0 0  0
0 0  0
0 0  0
0 0  0
0 0  0
0 0  0
0 0  0
0 0  0
0 0  0
0 0  0
0 0  0
0 0  0
0 0  0
0 0  0
0 0  0
0 0  0
0 0  0
0 0  0
0 0  0
0 0  0
0 0  0
0 0  0
0 0  0
0 0  0
0 0  0
0 0  0
0 0  0
0 0  0
0 0  0
0 0  0
0 0  0
0 0  0
0 0  0
0 0  0
0 0  0
0 0  0
0 0  0
0 0  0
0 0  0
0 0  0
0 0  0
0 0  0
0 0  0
0 0  0
0 0  0
0 0  0
0 0  0
0 0  0
0 0  0
0 0  0
0 0  0
0 0  0
0 0  0
0 0  0
0 0  0
0 0  0
0 0  0
0 0  0
0 0  0
0 0  0
0 0  0
0 0  0
0 0  0
0 0  0
0 0  0
0 0  0
0 0  0
0 0  0
0 0  0
0 0  0
0 0  0
0 0  0
0 0  0
0 0  0
0 0  0
0 0  0
0 0  0
0 0  0
0 0  0
0 0  0
0 0  0
0 0  0
0 0  0
0 0  0
0 0  0
0 0  0
0 0  0
0 0  0
0 0  0
0 0  0
0 0  0
0 0  0
0 0  0
0 0  0
0 0  0
0 0  0
0 0  0
0 0  0
0 0  0
0 0  0
0 0  0
0 0  0
0 0  0
0 0  0
0 0  0
0 0  0
0 0  0
0 0  0
0 0  0
0 0  0
0 0  0
0 0  0
0 0  0
0 0  0
0 0  0
0 0  0
0 0  0
0 0  0
0 0  0
0 0  0
0 0  0
0 0  0
0 0  0
0 0  0
0 0  0
0 0  0
0 0  0
0 0  0
0 0  0
0 0  0
0 0  0
0 0  0
0 0  0
0 0  0
0 0  0
0 0  0
0 0  0
0 0  0
0 0  0
0 0  0
0 0  0
0 0  0
0 0  0
0 0  0
0 0  0
0 0  0
0 0  0
0 0  0
0 0  0
0 0  0
0 0  0
0 0  0
0 0  0
0 0  0
0 0  0
0 0  0
0 0  0
0 0  0
0 0  0
0 0  0
0 0  0
0 0  0
0 0  0
0 0  0
0 0  0
0 0  0
0 0  0
0 0  0
0 0  0
0 0  0
0 0  0
0 0  0
0 0  0
0 0  0

SCALARS pressure double 1
LOOKUP_TABLE default
1.8601
1.85945
1.85792
1.85555
1.85237
1.84845
1.84383
1.83859
1.83285
1.8267
1.82028
1.81375
1.80725
1.80097
1.79508
1.78974
1.78512
1.78134
1.77851
1.7767
1.77592
1.77617
1.77739
1.77948
1.78236
1.78589
1.78994
1.79439
1.79909
1.80391
1.80872
1.81341
1.81788
1.82203
1.8258
1.82913
1.83199
1.83437
1.83622
1.83731
1.6705
1.66983
1.66827
1.66586
1.66263
1.65862
1.6539
1.64858
1.6427
1.63641
1.62985
1.62315
1.61649
1.61003
1.60397
1.59848
1.59371
1.58982
1.58692
1.58508
1.58431
1.58462
1.58593
1.58813
1.59114
1.59481
1.599
1.60359
1.60842
1.61336
1.61829
1.62308
1.62764
1.63185
1.63566
1.63903
1.64192
1.64432
1.64618
1.64729
1.49107
1.49038
1.48878
1.48628
1.48293
1.47878
1.4739
1.46835
1.46225
1.45569
1.44882
1.44181
1.4348
1.428
1.4216
1.41577
1.41072
1.4066
1.40355
1.40164
1.40091
1.40133
1.40282
1.40527
1.40854
1.41249
1.41697
1.42183
1.42693
1.43213
1.4373
1.44229
1.447
1.45134
1.45526
1.4587
1.46164
1.46408
1.46595
1.46706
1.32186
1.32112
1.31943
1.31681
1.3133
1.30894
1.3038
1.29796
1.2915
1.28454
1.27723
1.26972
1.2622
1.25486
1.24792
1.24159
1.23608
1.23159
1.22829
1.22629
1.22561
1.22623
1.22802
1.23084
1.23452
1.23891
1.24382
1.24912
1.25465
1.26025
1.26574
1.27102
1.27599
1.28054
1.28461
1.28816
1.29117
1.29365
1.29554
1.29665
1.16289
1.16209
1.1603
1.15751
1.15378
1.14915
1.14367
1.13743
1.1305
1.123
1.11508
1.10691
1.09867
1.09059
1.0829
1.07585
1.06969
1.06466
1.06099
1.05884
1.05826
1.05918
1.06142
1.06478
1.06905
1.07404
1.07957
1.08549
1.09158
1.09768
1.10366
1.10936
1.11466
1.11948
1.12375
1.12744
1.13055
1.13307
1.13498
1.13609
1.01423
1.01335
1.01141
1.00843
1.00444
0.999464
0.993576
0.986826
0.979308
0.97113
0.962431
0.953393
0.944229
0.935177
0.9265
0.918478
0.911406
0.905599
0.901388
0.899043
0.898633
0.900014
0.902919
0.907019
0.912078
0.917856
0.924217
0.930898
0.93773
0.94452
0.951106
0.957337
0.963078
0.968231
0.97274
0.976589
0.979793
0.982369
0.984285
0.985381
0.875929
0.874965
0.872863
0.869642
0.865326
0.859949
0.853562
0.846217
0.837987
0.828972
0.81931
0.809195
0.798859
0.788575
0.778636
0.769347
0.761049
0.754125
0.749102
0.746478
0.746358
0.748486
0.752343
0.757465
0.76349
0.770316
0.777662
0.785359
0.793126
0.800776
0.808127
0.815027
0.821309
0.826867
0.831649
0.835659
0.838937
0.841532
0.843436
0.844512
0.748077
0.747009
0.744721
0.741219
0.736527
0.730682
0.723717
0.715677
0.706612
0.696597
0.685765
0.674318
0.662522
0.6507
0.63919
0.628301
0.61838
0.609813
0.603474
0.60043
0.60085
0.604222
0.609528
0.615915
0.623191
0.631222
0.639872
0.648822
0.657743
0.666466
0.674785
0.682512
0.689467
0.695499
0.700567
0.704702
0.707992
0.710539
0.712381
0.713418
0.630757
0.629576
0.62707
0.623244
0.618119
0.611732
0.604111
0.595285
0.585262
0.574073
0.561824
0.548724
0.535079
0.521308
0.507812
0.495045
0.483059
0.471996
0.463263
0.459506
0.460935
0.466574
0.474051
0.482166
0.490782
0.500305
0.510658
0.52112
0.531473
0.54156
0.551123
0.559899
0.567692
0.574279
0.579623
0.583794
0.58696
0.589326
0.591023
0.591993
0.524064
0.522754
0.519996
0.515799
0.510178
0.503153
0.494789
0.485097
0.474007
0.461451
0.44747
0.432258
0.416134
0.399719
0.383418
0.368745
0.354327
0.339567
0.325872
0.320526
0.323768
0.333297
0.345183
0.355412
0.36536
0.376697
0.389395
0.401798
0.413994
0.425903
0.437146
0.447323
0.456189
0.463428
0.469014
0.473064
0.475868
0.477821
0.479239
0.480106
0.428102
0.426623
0.423563
0.418926
0.412708
0.404947
0.395734
0.385096
0.372871
0.358729
0.342563
0.324518
0.304727
0.284386
0.263412
0.246242
0.229834
0.210977
0.185957
0.176612
0.18205
0.197325
0.220593
0.233348
0.24466
0.258534
0.274397
0.289646
0.304397
0.319053
0.332778
0.344963
0.355254
0.363293
0.369083
0.372787
0.374862
0.376036
0.376959
0.377656
0.342985
0.341268
0.337811
0.332581
0.325571
0.31682
0.306632
0.295148
0.281705
0.265697
0.246631
0.22465
0.199055
0.172582
0.143201
0.123264
0.106275
0.087528
0.0315504
0.0168415
0.0205388
0.0360014
0.0961894
0.111874
0.126026
0.141614
0.162801
0.18272
0.200685
0.219957
0.237781
0.253084
0.265324
0.274401
0.280405
0.283529
0.284399
0.284235
0.284274
0.284618
0.268795
0.266574
0.262375
0.256381
0.248178
0.237844
0.226255
0.214259
0.20018
0.181453
0.158411
0.131215
0.0967675
0.0614659
0.0160162
0.0117443
0.00117596
0.0066152
0
0
0
0
0.0224568
0.00276871
0.0113908
0.0213033
0.0515873
0.0808481
0.0993225
0.126626
0.151685
0.171994
0.186875
0.19739
0.203754
0.206171
0.205331
0.202933
0.201297
0.200839
0.205512
0.202202
0.196724
0.188828
0.178811
0.165701
0.151511
0.13979
0.126145
0.104602
0.0754326
0.043458
-0.00207982
-0.0218156
0
0
0
0
0
0
0
0
0
0
0
0
-0.0368212
-0.00485128
-0.00600162
0.0370226
0.0742968
0.1016
0.119867
0.132431
0.139579
0.141328
0.138352
0.131943
0.127176
0.125145
0.152003
0.14588
0.137871
0.127576
0.114261
0.0967842
0.0769239
0.0676168
0.0566579
0.0326561
-0.00358587
-0.0244337
0
0
0
0
0
0
0
0
0
0
0
0
0
0
0
0
0
-0.0403467
0.00709175
0.0418672
0.0633314
0.0784873
0.0869455
0.0891544
0.084201
0.0692383
0.0591384
0.0545377
0.103986
0.0907196
0.0788164
0.0667641
0.0524929
0.0307151
-0.00550238
-0.0028748
-0.00581231
-0.022777
0
0
0
0
0
0
0
0
0
0
0
0
0
0
0
0
0
0
0
0
-0.0426497
-0.000149902
0.0186806
0.0353995
0.0456945
0.0497809
0.0449937
0.0115029
-0.00355488
-0.00887843
0.0531338
0.0228271
0.0102186
0.00408769
-0.00127769
-0.0186578
0
0
0
0
0
0
0
0
0
0
0
0
0
0
0
0
0
0
0
0
0
0
0
0
0
0
-0.0133787
0.00673374
0.0164973
0.022546
0.0315973
0
0
0
0
0
0
0
0
0
0
0
0
0
0
0
0
0
0
0
0
0
0
0
0
0
0
0
0
0
0
0
0
0
0
0
0
-0.00286825
-0.00062122
-0.00167684
0
0
0
0
0
0
0
0
0
0
0
0
0
0
0
0
0
0
0
0
0
0
0
0
0
0
0
0
0
0
0
0
0
0
0
0
0
0
0
0
0
0
0
0
0
0
0
0
0
0
0
0
0
0
0
0
0
0
0
0
0
0
0
0
0
0
0
0
0
0
0
0
0
0
0
0
0
0
0
0
0
0
0
0
0
0
0
0
0
0
0
0
0
0
0
0
0
0
0
0
0
0
0
0
0
0
0
0
0
0
0
0
0
0
0
0
0
0
0
0
0
0
0
0
0
0
0
0
0
0
0
0
0
0
0
0
0
0
0
0
0
0
0
0
0
0
0
0
0
0
0
0
0
0
0
0
0
0
0
0
0
0
0
0
0
0
0
0
0
0
0
0
0
0
0
0
0
0
0
0
0
0
0
0
0
0
0
0
0
0
0
0
0
0
0
0
0
0
0
0
0
0
0
0
0
0
0
0
0
0
0
0
0
0
0
0
0
0
0
0
0
0
0
0
0
0
0
0
0
0
0
0
0
0
0
0
0
0
0
0
0
0
0
0
0
0
0
0
0
0
0
0
0
0
0
0
0
0
0
0
0
0
0
0
0
0
0
0
0
0
0
0
0
0
0
0
0
0
0
0
0
0
0
0
0
0
0
0
0
0
0
0
0
0
0
0
0
0
0
0
0
0
0
0
0
0
0
0
0
0
0
0
0
0
0
0
0
0
0
0
0
0
0
0
0
0
0
0
0
0
0
0
0
0
0
0
0
0
0
0
0
0
0
0
0
0
0
0
0
0
0
0
0
0
0
0
0
0
0
0
0
0
0
0
0
0
0
0
0
0
0
0
0
0
0
0
0
0
0
0
0
0
0
0
0
0
0
0
0
0
0
0
0
0
0
0
0
0
0
0
0
0
0
0
0
0
0
0
0
0
0
0
0
0
0
0
0
0
0
0
0
0
0
0
0
0
0
0
0
0
0
0
0
0
0
0
0
0
0
0
0
0
0
0
0
0
0
0
0
0
0
0
0
0
0
0
0
0
0
0
0
0
0
0
0
0
0
0
0
0
0
0
0
0
0
0
0
0
0
0
0
0
0
0
SCALARS rhs double 1
LOOKUP_TABLE default
-4.63802
-4.69685
-4.69837
-4.6996
-4.70117
-4.70314
-4.70431
-4.70536
-4.70744
-4.70851
-4.70967
-4.71069
-4.71159
-4.71273
-4.71359
-4.71421
-4.71524
-4.71569
-4.71599
-4.71639
-4.71642
-4.71599
-4.71542
-4.71467
-4.71364
-4.71253
-4.71145
-4.71031
-4.70915
-4.70808
-4.70712
-4.70634
-4.70579
-4.7053
-4.70463
-4.70366
-4.70275
-4.70346
-4.70782
-4.71617
0.302321
0.245704
0.244772
0.243835
0.243166
0.243401
0.242674
0.241251
0.24203
0.241367
0.241192
0.241139
0.24076
0.240891
0.240876
0.240316
0.240553
0.240193
0.239803
0.239926
0.240091
0.240081
0.240454
0.241028
0.241406
0.241869
0.242539
0.243011
0.243247
0.243457
0.243387
0.243144
0.243159
0.243501
0.243896
0.244267
0.244538
0.243451
0.238412
0.229211
0.299429
0.243951
0.242733
0.242443
0.24225
0.241313
0.240378
0.240866
0.23968
0.239702
0.23955
0.23915
0.239243
0.239104
0.238769
0.238971
0.238543
0.238292
0.238261
0.238215
0.238124
0.238492
0.238797
0.239018
0.239719
0.240443
0.240841
0.241229
0.241628
0.241375
0.241213
0.241629
0.242099
0.242182
0.242202
0.242623
0.243228
0.242281
0.23734
0.228522
0.295667
0.242506
0.241926
0.24123
0.240596
0.239851
0.239527
0.238554
0.238536
0.238019
0.237628
0.237526
0.237379
0.237165
0.237214
0.236954
0.236752
0.236578
0.236485
0.236309
0.236547
0.236583
0.236775
0.237548
0.237992
0.238497
0.239221
0.239636
0.23906
0.239491
0.240303
0.240485
0.240325
0.240474
0.240958
0.241541
0.241943
0.24096
0.236296
0.227942
0.291743
0.241302
0.240258
0.239938
0.23897
0.238329
0.237801
0.237052
0.236451
0.236023
0.235592
0.235386
0.235103
0.234928
0.234901
0.234705
0.234539
0.234447
0.234169
0.234266
0.234149
0.234277
0.234851
0.234997
0.235787
0.236317
0.236818
0.236385
0.23773
0.238197
0.238106
0.238287
0.238741
0.239084
0.2394
0.239891
0.240378
0.239322
0.23472
0.226828
0.287037
0.239868
0.239131
0.23817
0.237464
0.236794
0.235699
0.235096
0.234253
0.233512
0.233056
0.232567
0.232198
0.231895
0.231752
0.231738
0.231571
0.231375
0.231347
0.231091
0.231081
0.231427
0.231422
0.232222
0.231786
0.233082
0.233041
0.234676
0.234872
0.235713
0.235911
0.236277
0.236672
0.237183
0.237753
0.238179
0.238256
0.236955
0.232504
0.225071
0.282152
0.238326
0.237473
0.236621
0.235758
0.234759
0.233676
0.232521
0.231467
0.230462
0.229589
0.228744
0.227958
0.227104
0.226795
0.226891
0.226549
0.226537
0.226355
0.225798
0.225831
0.225952
0.226572
0.224922
0.227649
0.227503
0.230098
0.229659
0.230856
0.231971
0.233627
0.233652
0.234455
0.235142
0.235683
0.235986
0.235759
0.233988
0.229534
0.222555
0.276644
0.236864
0.235753
0.234884
0.2338
0.232353
0.231012
0.229384
0.227762
0.226225
0.224578
0.222823
0.220725
0.218176
0.216028
0.216738
0.215454
0.215983
0.215746
0.212908
0.212239
0.212618
0.210288
0.216124
0.217099
0.220206
0.221466
0.221489
0.224588
0.226938
0.229546
0.230918
0.231586
0.23269
0.233428
0.233514
0.232849
0.230669
0.226172
0.219411
0.270755
0.234918
0.233741
0.232674
0.231488
0.229457
0.227271
0.224997
0.222492
0.219765
0.216509
0.212199
0.206344
0.198551
0.189241
0.189137
0.184089
0.188812
0.190355
0.174074
0.170028
0.152545
0.178809
0.186122
0.196116
0.201161
0.20135
0.205952
0.212795
0.218443
0.223149
0.227456
0.228056
0.229835
0.230957
0.231312
0.230622
0.228282
0.223569
0.216278
0.264347
0.232519
0.231028
0.229123
0.226684
0.225147
0.222484
0.217976
0.213924
0.208789
0.201737
0.190935
0.176373
0.154628
0.143253
0.100513
0.0955645
0.119488
0.136703
0.0752158
0.0273363
-0.0242896
0.0607788
0.10836
0.150187
0.165048
0.148504
0.172567
0.188548
0.202208
0.212867
0.222249
0.223594
0.226836
0.228996
0.230767
0.231688
0.230355
0.224642
0.214754
0.256779
0.228874
0.225902
0.222303
0.218139
0.213732
0.21044
0.208483
0.197261
0.186822
0.171894
0.14713
0.123456
0.0682687
0.0999018
0.00655495
-0.0431333
-0.031162
0.029774
-0.0167342
-0.235749
-0.410668
-0.235639
-0.0210107
0.111633
0.0944466
0.0738073
0.118516
0.143854
0.168972
0.19409
0.213305
0.217622
0.223936
0.228491
0.234168
0.240334
0.242455
0.233366