# vtk DataFile Version 4.0
Nusif Fluid VTK output
ASCII
DATASET STRUCTURED_POINTS
DIMENSIONS 40 30 1
ORIGIN 0 0 0 
SPACING 0.2 0.2 1
POINT_DATA 1200 

VECTORS velocity double
-0.000680071 0.00116803  0
-0.00209853 0.00116579  0
-0.00357275 0.00116203  0
-0.00503816 0.00115474  0
-0.00648424 0.00114078  0
-0.00789271 0.00111559  0
-0.00923493 0.00107331  0
-0.0104691 0.00100656  0
-0.0115376 0.000906765  0
-0.0123646 0.000764574  0
-0.0128562 0.000570814  0
-0.0129018 0.000318089  0
-0.0123798 2.88254e-06  0
-0.011168 -0.000372006  0
-0.00915881 -0.000795028  0
-0.00627739 -0.0012447  0
-0.00250133 -0.00169026  0
0.00212431 -0.00209499  0
0.00748108 -0.00242224  0
0.0133843 -0.00264244  0
0.0196038 -0.0027396  0
0.0258945 -0.00271504  0
0.0320317 -0.00258731  0
0.0378402 -0.00238799  0
0.0432149 -0.00215489  0
0.0481247 -0.00192482  0
0.0526058 -0.00172763  0
0.0567436 -0.00158317  0
0.0606534 -0.00150101  0
0.064461 -0.00148248  0
0.0682904 -0.00152409  0
0.0722577 -0.00162155  0
0.0764743 -0.00177438  0
0.0810594 -0.00199109  0
0.0861612 -0.00229184  0
0.0919396 -0.00266825  0
0.0981536 -0.00272801  0
0.101675 2.40669e-05  0
0.0891428 0.0133254  0
0.038113 0.0385215  0
-0.000682553 0.00344406  0
-0.00210486 0.00343958  0
-0.00358391 0.00343143  0
-0.00505947 0.00341372  0
-0.00652345 0.00337706  0
-0.00796024 0.00330807  0
-0.00934406 0.00318904  0
-0.0106358 0.00299776  0
-0.0117797 0.00270804  0
-0.0127007 0.00229082  0
-0.0133028 0.00171717  0
-0.0134698 0.000962713  0
-0.01307 1.44064e-05  0
-0.0119661 -0.00112163  0
-0.0100318 -0.00241205  0
-0.00717287 -0.00379168  0
-0.0033519 -0.00516478  0
0.00139197 -0.00641537  0
0.00693322 -0.0074264  0
0.0130665 -0.00810259  0
0.0195306 -0.00839227  0
0.0260462 -0.00829968  0
0.0323581 -0.00788443  0
0.0382721 -0.00724798  0
0.0436773 -0.00651127  0
0.0485511 -0.00579056  0
0.0529464 -0.00517858  0
0.056969 -0.00473505  0
0.0607528 -0.00448668  0
0.0644366 -0.00443409  0
0.0681501 -0.00456272  0
0.0720062 -0.00485505  0
0.0761026 -0.00530377  0
0.0805302 -0.00592545  0
0.0853818 -0.00676282  0
0.0907087 -0.00775509  0
0.096079 -0.00767862  0
0.098226 0.000852907  0
0.0846095 0.0401916  0
0.0357166 0.113124  0
-0.000685242 0.00565851  0
-0.0021121 0.00565602  0
-0.00359891 0.00565063  0
-0.00509263 0.00563297  0
-0.00658995 0.00558782  0
-0.0080808 0.00549337  0
-0.00954534 0.00532023  0
-0.0109502 0.00503107  0
-0.0122446 0.00458071  0
-0.0133555 0.00391771  0
-0.0141844 0.00298872  0
-0.0146046 0.00174585  0
-0.0144643 0.0001584  0
-0.0135948 -0.00177189  0
-0.0118292 -0.00399484  0
-0.00903037 -0.00639992  0
-0.00512539 -0.00881616  0
-0.000137756 -0.0110296  0
0.00579337 -0.0128192  0
0.0124178 -0.0140027  0
0.019406 -0.0144803  0
0.0264017 -0.0142595  0
0.0330826 -0.0134547  0
0.0392124 -0.0122596  0
0.044671 -0.0109024  0
0.049456 -0.00959779  0
0.0536597 -0.0085107  0
0.0574338 -0.00774079  0
0.0609524 -0.00732498  0
0.064383 -0.00725248  0
0.0678676 -0.00748513  0
0.0715146 -0.00797886  0
0.0753992 -0.00870443  0
0.0795686 -0.00966547  0
0.0840427 -0.0108924  0
0.0887605 -0.0122143  0
0.0931673 -0.0115405  0
0.0941146 0.00307645  0
0.0801604 0.0669948  0
0.0336308 0.1832  0
-0.000686123 0.00786739  0
-0.00211421 0.00787163  0
-0.00360744 0.00787878  0
-0.0051224 0.00787661  0
-0.00666307 0.00784497  0
-0.00822785 0.00775438  0
-0.00980636 0.00756451  0
-0.0113753 0.00722269  0
-0.012893 0.00666307  0
-0.0142926 0.00580779  0
-0.0154746 0.00457138  0
-0.0163002 0.00287077  0
-0.0165879 0.000642516  0
-0.0161195 -0.00213232  0
-0.0146597 -0.0053982  0
-0.0119942 -0.00899956  0
-0.00798175 -0.0126729  0
-0.00261116 -0.0160703  0
0.0039601 -0.0188205  0
0.0114053 -0.0206113  0
0.0192736 -0.0212691  0
0.0270715 -0.0208057  0
0.0343575 -0.0194176  0
0.0408237 -0.0174358  0
0.0463385 -0.0152436  0
0.0509422 -0.0131899  0
0.0548027 -0.0115281  0
0.058154 -0.0103949  0
0.0612403 -0.00982249  0
0.0642757 -0.0097682  0
0.0674229 -0.0101488  0
0.0707856 -0.0108729  0
0.0744109 -0.0118686  0
0.0782957 -0.013104  0
0.0823889 -0.0145698  0
0.0865446 -0.0159593  0
0.0901642 -0.0143707  0
0.0903428 0.00623189  0
0.076586 0.0930016  0
0.0321019 0.249658  0
-0.000682414 0.010063  0
-0.00210263 0.0100801  0
-0.00359458 0.0101126  0
-0.0051266 0.0101464  0
-0.00671223 0.0101579  0
-0.00836129 0.0101115  0
-0.010077 0.0099576  0
-0.0118516 0.00962896  0
-0.0136594 0.00903803  0
-0.0154472 0.00807598  0
-0.0171215 0.00661525  0
-0.0185337 0.00452038  0
-0.0194674 0.0016701  0
-0.0196353 -0.00200461  0
-0.0186963 -0.00646884  0
-0.0163051 -0.0115301  0
-0.0121962 -0.0168081  0
-0.00628539 -0.0217612  0
0.00125244 -0.0257837  0
0.00996908 -0.0283554  0
0.0192113 -0.0291816  0
0.0282529 -0.0282795  0
0.0364523 -0.0259769  0
0.0433862 -0.022825  0
0.0489168 -0.0194491  0
0.0531715 -0.0163928  0
0.0564546 -0.0140194  0
0.0591392 -0.0124908  0
0.061579 -0.0118046  0
0.0640566 -0.0118516  0
0.0667626 -0.0124715  0
0.069794 -0.0134977  0
0.0731628 -0.0147915  0
0.0768091 -0.0162661  0
0.0806145 -0.0178601  0
0.084374 -0.0191381  0
0.087493 -0.0164844  0
0.087313 0.00979321  0
0.0740163 0.11794  0
0.0310917 0.313575  0
-0.000670707 0.0122316  0
-0.00206688 0.0122685  0
-0.00354186 0.0123412  0
-0.00507734 0.0124351  0
-0.00669806 0.0125251  0
-0.00842813 0.0125728  0
-0.0102889 0.0125221  0
-0.0122948 0.0122942  0
-0.014446 0.011781  0
-0.0167155 0.0108396  0
-0.0190304 0.0092901  0
-0.0212454 0.00692213  0
-0.0231127 0.0035189  0
-0.0242583 -0.00109031  0
-0.0241852 -0.00694544  0
-0.0223334 -0.0138467  0
-0.0182129 -0.021271  0
-0.0115873 -0.0283851  0
-0.00263431 -0.0342014  0
0.00800768 -0.0378475  0
0.0193495 -0.0388252  0
0.0302762 -0.0371565  0
0.0398121 -0.0333882  0
0.0473516 -0.028441  0
0.0527707 -0.0233376  0
0.0563719 -0.0189157  0
0.0587046 -0.0156686  0
0.0603687 -0.0137472  0
0.0618794 -0.0130563  0
0.0636086 -0.0133648  0
0.0657765 -0.0143907  0
0.068465 -0.0158572  0
0.0716367 -0.0175315  0
0.0751595 -0.0192545  0
0.0788399 -0.020917  0
0.0824367 -0.021997  0
0.0854132 -0.0182803  0
0.0853232 0.0132997  0
0.0726438 0.14185  0
0.0306433 0.37603  0
-0.000647287 0.0143523  0
-0.00199545 0.0144164  0
-0.00342881 0.0145447  0
-0.00494293 0.014724  0
-0.00657463 0.0149312  0
-0.00836433 0.0151289  0
-0.0103556 0.0152604  0
-0.0125928 0.0152413  0
-0.0151141 0.0149487  0
-0.0179383 0.014208  0
-0.0210391 0.0127801  0
-0.0243047 0.0103556  0
-0.0274797 0.00657076  0
-0.0300997 0.00106663  0
-0.0314527 -0.00637889  0
-0.0306308 -0.0156432  0
-0.0267347 -0.0260473  0
-0.019216 -0.0363092  0
-0.00821011 -0.0447924  0
0.00534547 -0.0500107  0
0.0199025 -0.0511181  0
0.03369 -0.0481358  0
0.0451678 -0.0419814  0
0.0534368 -0.034216  0
0.058442 -0.0265475  0
0.0608403 -0.0202668  0
0.061623 -0.0159951  0
0.0617514 -0.0137761  0
0.0619613 -0.0133115  0
0.0627221 -0.0141635  0
0.0642701 -0.0158723  0
0.0666529 -0.0180116  0
0.0697597 -0.0202205  0
0.073349 -0.0222427  0
0.0771097 -0.0239351  0
0.0807588 -0.02479  0
0.0839059 -0.0201758  0
0.0843557 0.0162705  0
0.0724595 0.164891  0
0.0307471 0.438139  0
-0.000608578 0.0163975  0
-0.00187716 0.016495  0
-0.00323508 0.0166928  0
-0.00469103 0.0169814  0
-0.00629326 0.017343  0
-0.00809892 0.0177476  0
-0.0101765 0.0181457  0
-0.0126065 0.0184585  0
-0.0154794 0.0185611  0
-0.0188842 0.01826  0
-0.0228826 0.0172629  0
-0.0274545 0.0151461  0
-0.0324016 0.0113386  0
-0.0372079 0.0051617  0
-0.0408951 -0.00399657  0
-0.0420019 -0.0163032  0
-0.0388789 -0.0309686  0
-0.030332 -0.0460154  0
-0.0163372 -0.0586489  0
0.00168175 -0.0662911  0
0.0212261 -0.067502  0
0.039413 -0.0622899  0
0.0537319 -0.0521886  0
0.0627855 -0.0398969  0
0.0667198 -0.0283725  0
0.0669243 -0.0196121  0
0.0651956 -0.014272  0
0.0630527 -0.0120535  0
0.0614926 -0.0122533  0
0.0610489 -0.0141085  0
0.0619301 -0.0169267  0
0.0641189 -0.0200995  0
0.0674027 -0.023094  0
0.0713674 -0.0254943  0
0.0754542 -0.0271019  0
0.0792081 -0.0275972  0
0.0824931 -0.0223715  0
0.0836822 0.0182568  0
0.0728505 0.187062  0
0.0311797 0.50078  0
-0.000551658 0.0183329  0
-0.00170274 0.0184684  0
-0.00294331 0.0187458  0
-0.00429285 0.0191617  0
-0.00580839 0.0197083  0
-0.00756155 0.020369  0
-0.00964465 0.0211128  0
-0.0121774 0.0218822  0
-0.0153125 0.0225735  0
-0.0192362 0.0230045  0
-0.0241525 0.0228616  0
-0.0302286 0.0216243  0
-0.0374641 0.0184725  0
-0.0454348 0.0122348  0
-0.0529171 0.00153045  0
-0.057602 -0.0146072  0
-0.0564461 -0.0355115  0
-0.0468957 -0.0581375  0
-0.0284924 -0.0774926  0
-0.00350679 -0.0890198  0
0.0239125 -0.0903054  0
0.0490056 -0.0813358  0
0.0675625 -0.0645889  0
0.0772548 -0.0448139  0
0.0787291 -0.0274368  0
0.0749439 -0.0155408  0
0.0691857 -0.00943107  0
0.0637755 -0.00791654  0
0.0599136 -0.00954394  0
0.0580588 -0.0130954  0
0.0582934 -0.017632  0
0.0605054 -0.0223717  0
0.064386 -0.026563  0
0.0692906 -0.0294716  0
0.0741237 -0.0306217  0
0.0777232 -0.030008  0
0.0801823 -0.0242815  0
0.081421 0.0191627  0
0.0721075 0.207725  0
0.0313237 0.563996  0
-0.000474783 0.0201198  0
-0.00146651 0.020295  0
-0.00254227 0.0206559  0
-0.00372832 0.0212076  0
-0.00508541 0.0219554  0
-0.00669362 0.0229037  0
-0.00866247 0.0240507  0
-0.0111449 0.0253801  0
-0.0143558 0.0268425  0
-0.0185944 0.0283189  0
-0.0242609 0.0295514  0
-0.0318417 0.0300133  0
-0.0417889 0.0286886  0
-0.0541472 0.0237707  0
-0.0677335 0.0124872  0
-0.0790396 -0.00814784  0
-0.0824044 -0.0383359  0
-0.0723103 -0.0735309  0
-0.0472251 -0.104161  0
-0.0111259 -0.12201  0
0.0289351 -0.12337  0
0.0651551 -0.108159  0
0.0902748 -0.0800178  0
0.0999564 -0.0473363  0
0.0960135 -0.0210246  0
0.0849546 -0.00568886  0
0.0728502 -1.30936e-06  0
0.0629786 -0.000645958  0
0.0563648 -0.00492063  0
0.0530289 -0.0111103  0
0.0527461 -0.0181513  0
0.0553148 -0.0252157  0
0.0604741 -0.031342  0
0.0674645 -0.0351708  0
0.0742277 -0.0351023  0
0.077177 -0.0306596  0
0.0758905 -0.0233853  0
0.0742298 0.0201065  0
0.066834 0.22491  0
0.0299097 0.625939  0
-0.00037773 0.021718  0
-0.00116755 0.0219304  0
-0.00202921 0.0223707  0
-0.00299037 0.0230529  0
-0.0041082 0.0239981  0
-0.00546117 0.0252354  0
-0.00716198 0.0268019  0
-0.00937813 0.0287409  0
-0.0123648 0.0310929  0
-0.0165168 0.0338728  0
-0.0224462 0.0370077  0
-0.0310778 0.040184  0
-0.0436905 0.042493  0
-0.0616171 0.0416673  0
-0.0848135 0.0327908  0
-0.108389 0.00784915  0
-0.121802 -0.0361345  0
-0.112755 -0.0934514  0
-0.0770743 -0.143584  0
-0.0227436 -0.171594  0
0.0379496 -0.173118  0
0.0926275 -0.147889  0
0.128577 -0.099939  0
0.136375 -0.0434784  0
0.120495 -0.00364446  0
0.0961056 0.0137928  0
0.0744021 0.0157374  0
0.0590765 0.0102247  0
0.0497327 0.00157821  0
0.0451983 -0.00832706  0
0.0446795 -0.0187213  0
0.04798 -0.0291033  0
0.0553466 -0.0385691  0
0.066728 -0.0449048  0
0.0792349 -0.0432283  0
0.0815506 -0.0263887  0
0.0693509 -0.012759  0
0.0569288 0.0249757  0
0.0517968 0.233982  0
0.025223 0.681779  0
-0.00026135 0.0230876  0
-0.000808423 0.0233309  0
-0.00140826 0.0238372  0
-0.00208391 0.0246289  0
-0.00288042 0.0257422  0
-0.00386156 0.0272313  0
-0.00512268 0.0291741  0
-0.00681297 0.0316815  0
-0.00917569 0.0349082  0
-0.0126239 0.0390644  0
-0.0178856 0.0444142  0
-0.026283 0.0512139  0
-0.0402224 0.0594231  0
-0.063757 0.0676071  0
-0.10146 0.0691603  0
-0.147923 0.0429318  0
-0.183913 -0.0203992  0
-0.18065 -0.120079  0
-0.126931 -0.204939  0
-0.0413611 -0.248722  0
0.0540838 -0.250711  0
0.14075 -0.210225  0
0.196425 -0.127814  0
0.197183 -0.0227489  0
0.153944 0.0361542  0
0.105024 0.0487103  0
0.0701072 0.0388455  0
0.0498407 0.0241142  0
0.0390953 0.00918357  0
0.0343635 -0.00526027  0
0.0340891 -0.019589  0
0.0382803 -0.0343214  0
0.0485155 -0.0495474  0
0.0680088 -0.0633964  0
0.0972832 -0.0651144  0
0.100308 -0.0084411  0
0.0576996 0.0255058  0
0.0167364 0.0415042  0
0.0178135 0.222918  0
0.0154668 0.723174  0
-0.000126368 0.024191  0
-0.000391706 0.0244546  0
-0.000684912 0.0250047  0
-0.0010191 0.0258697  0
-0.00141926 0.0270969  0
-0.00192166 0.0287592  0
-0.00258215 0.030967  0
-0.00349155 0.0338876  0
-0.00480611 0.0377788  0
-0.0068123 0.0430478  0
-0.0100775 0.0503575  0
-0.0158348 0.0608253  0
-0.0270656 0.0763823  0
-0.0517291 0.100247  0
-0.109828 0.133724  0
-0.19966 0.11607  0
-0.289589 0.0337915  0
-0.305659 -0.160049  0
-0.215459 -0.307473  0
-0.0728083 -0.372995  0
0.0829004 -0.376179  0
0.228476 -0.315587  0
0.327819 -0.17606  0
0.307745 0.0462183  0
0.196333 0.123241  0
0.102065 0.106211  0
0.0531012 0.0666236  0
0.0332384 0.0378647  0
0.0249784 0.0158383  0
0.0221373 -0.00294174  0
0.0228477 -0.020943  0
0.027462 -0.0403722  0
0.0390889 -0.0639582  0
0.0674901 -0.0954803  0
0.132643 -0.12606  0
0.130268 0.0529016  0
0.0095929 0.128498  0
-0.0745815 0.0650547  0
-0.0425445 0.167659  0
0.000148765 0.739493  0
1.07915e-05 0.0246607  0
3.18824e-05 0.0249319  0
5.12882e-05 0.0254986  0
6.72477e-05 0.0263916  0
7.70974e-05 0.027663  0
7.67943e-05 0.0293936  0
5.97428e-05 0.031708  0
1.48582e-05 0.0347989  0
-7.72429e-05 0.0389723  0
-0.000253149 0.0447345  0
-0.00058648 0.0529675  0
-0.00125146 0.0653358  0
-0.00298414 0.0855335  0
-0.0133499 0.126824  0
-0.110543 0.263139  0
-0.294312 0.261312  0
-0.51893 0.204506  0
-0.555871 -0.276342  0
-0.345903 -0.489935  0
-0.113167 -0.564508  0
0.117782 -0.569913  0
0.356229 -0.504467  0
0.599378 -0.328266  0
0.5545 0.264777  0
0.260368 0.311622  0
0.0766439 0.196866  0
0.0169931 0.0852793  0
0.0123292 0.0444337  0
0.0124653 0.0180916  0
0.013981 -0.00317082  0
0.0167393 -0.0234836  0
0.0213634 -0.0463709  0
0.0293148 -0.0768387  0
0.0426612 -0.123648  0
0.0509566 -0.170642  0
-0.0118767 0.151213  0
-0.07471 0.202219  0
-0.0783015 0.0798021  0
-0.0175616 0.0611894  0
0.023385 0.763729  0
-0.00012506 0.012325  0
-0.000387897 0.0124608  0
-0.000680288 0.0127447  0
-0.00101801 0.0131924  0
-0.00142897 0.01383  0
-0.0019541 0.0146985  0
-0.0026568 0.0158609  0
-0.00364088 0.017415  0
-0.00508697 0.0195166  0
-0.00732944 0.0224247  0
-0.0110529 0.0265929  0
-0.0180683 0.0328912  0
-0.0380447 0.0434098  0
-0.145566 0.0679517  0
-0.777227 0.354286  0
-1.31668 0.357321  0
-1.26949 0.286982  0
-0.870535 -0.719418  0
-0.371552 -0.754401  0
-0.114302 -0.788619  0
0.10698 -0.796625  0
0.371465 -0.779283  0
0.877397 -0.801129  0
1.33397 0.327345  0
1.43784 0.440362  0
0.810875 0.34628  0
0.120703 0.0447992  0
0.0483231 0.0223893  0
0.0369574 0.0088053  0
0.0353899 -0.00210274  0
0.0392723 -0.0126036  0
0.0497046 -0.0246357  0
0.070651 -0.0409448  0
0.0870375 -0.0659719  0
0.0703058 -0.0853212  0
-0.0118767 0.10111  0
-0.0152971 0.10111  0
0.0254493 -0.118641  0
0.0309264 -0.0269337  0
0.0275349 0.815352  0
0 0  0
0 0  0
0 0  0
0 0  0
0 0  0
0 0  0
0 0  0
0 0  0
0 0  0
0 0  0
0 0  0
0 0  0
0 0  0
0 0  0
-0.658338 0.17866  0
-0.859601 0.298732  0
-0.402525 0.240143  0
-0.348948 -1.12405  0
-0.21706 -0.979232  0
-0.0758031 -0.960886  0
0.0503782 -0.970413  0
0.19254 -1.01074  0
0.295586 -1.17725  0
0.319979 0.223552  0
0.879044 0.379123  0
0.718919 0.220181  0
0 0  0
0 0  0
0 0  0
0 0  0
0 0  0
0 0  0
0 0  0
0 0  0
0 0  0
0 0  0
0 0  0
-0.131408 -0.185877  0
-0.262816 -0.0510772  0
-0.131408 0.711831  0
0 0  0
0 0  0
0 0  0
0 0  0
0 0  0
0 0  0
0 0  0
0 0  0
0 0  0
0 0  0
0 0  0
0 0  0
0 0  0
0 0  0
0 0  0
-0.201263 0.120071  0
-0.300019 -0.395344  0
-0.196451 -1.17834  0
-0.1585 -1.09373  0
-0.0717662 -1.07297  0
0.0289136 -1.08378  0
0.125292 -1.1345  0
0.198241 -1.22808  0
0.225647 0.22328  0
0.112824 0.270582  0
0 0  0
0 0  0
0 0  0
0 0  0
0 0  0
0 0  0
0 0  0
0 0  0
0 0  0
0 0  0
0 0  0
0 0  0
-0.131408 -0.0255386  0
-0.578566 -0.0255386  0
-0.447158 0.290211  0
0 0  0
0 0  0
0 0  0
0 0  0
0 0  0
0 0  0
0 0  0
0 0  0
0 0  0
0 0  0
0 0  0
0 0  0
0 0  0
0 0  0
0 0  0
0 0  0
-0.0244735 -1.10559  0
-0.0804158 -1.14793  0
-0.100464 -1.14133  0
-0.0604712 -1.15068  0
-0.00413251 -1.16168  0
0.041449 -1.19716  0
0.0592642 -1.25513  0
0.142456 -0.515926  0
0.112824 0.11164  0
0 0  0
0 0  0
0 0  0
0 0  0
0 0  0
0 0  0
0 0  0
0 0  0
0 0  0
0 0  0
0 0  0
0 0  0
0 0  0
0 0  0
0 0  0
0 0  0
0 0  0
0 0  0
0 0  0
0 0  0
0 0  0
0 0  0
0 0  0
0 0  0
0 0  0
0 0  0
0 0  0
0 0  0
0 0  0
0 0  0
0 0  0
-0.0564187 -1.1484  0
-0.112837 -1.11646  0
-0.0914145 -1.17383  0
-0.0541075 -1.19479  0
-0.0249293 -1.20239  0
-0.011635 -1.21462  0
0.0238146 -1.23488  0
0.0296321 -0.627566  0
0 0  0
0 0  0
0 0  0
0 0  0
0 0  0
0 0  0
0 0  0
0 0  0
0 0  0
0 0  0
0 0  0
0 0  0
0 0  0
0 0  0
0 0  0
0 0  0
0 0  0
0 0  0
0 0  0
0 0  0
0 0  0
0 0  0
0 0  0
0 0  0
0 0  0
0 0  0
0 0  0
0 0  0
0 0  0
0 0  0
0 0  0
0 0  0
-0.0564187 -0.558229  0
-0.0734423 -0.558229  0
-0.0443079 -0.597624  0
-0.0438894 -0.605336  0
-0.0229541 -0.607843  0
-0.0121665 -0.607311  0
-0.00581752 -0.607311  0
0 0  0
0 0  0
0 0  0
0 0  0
0 0  0
0 0  0
0 0  0
0 0  0
0 0  0
0 0  0
0 0  0
0 0  0
0 0  0
0 0  0
0 0  0
0 0  0
0 0  0
0 0  0
0 0  0
0 0  0
0 0  0
0 0  0
0 0  0
0 0  0
0 0  0
0 0  0
0 0  0
0 0  0
0 0  0
0 0  0
0 0  0
0 0  0
0 0  0
0 0  0
0 0  0
0 0  0
0 0  0
0 0  0
0 0  0
0 0  0
0 0  0
0 0  0
0 0  0
0 0  0
0 0  0
0 0  0
0 0  0
0 0  0
0 0  0
0 0  0
0 0  0
0 0  0
0 0  0
0 0  0
0 0  0
0 0  0
0 0  0
0 0  0
0 0  0
0 0  0
0 0  0
0 0  0
0 0  0
0 0  0
0 0  0
0 0  0
0 0  0
0 0  0
0 0  0
0 0  0
0 0  0
0 0  0
0 0  0
0 0  0
0 0  0
0 0  0
0 0  0
0 0  0
0 0  0
0 0  0
0 0  0
0 0  0
0 0  0
0 0  0
0 0  0
0 0  0
0 0  0
0 0  0
0 0  0
0 0  0
0 0  0
0 0  0
0 0  0
0 0  0
0 0  0
0 0  0
0 0  0
0 0  0
0 0  0
0 0  0
0 0  0
0 0  0
0 0  0
0 0  0
0 0  0
0 0  0
0 0  0
0 0  0
0 0  0
0 0  0
0 0  0
0 0  0
0 0  0
0 0  0
0 0  0
0 0  0
0 0  0
0 0  0
0 0  0
0 0  0
0 0  0
0 0  0
0 0  0
0 0  0
0 0  0
0 0  0
0 0  0
0 0  0
0 0  0
0 0  0
0 0  0
0 0  0
0 0  0
0 0  0
0 0  0
0 0  0
0 0  0
0 0  0
0 0  0
0 0  0
0 0  0
0 0  0
0 0  0
0 0  0
0 0  0
0 0  0
0 0  0
0 0  0
0 0  0
0 0  0
0 0  0
0 0  0
0 0  0
0 0  0
0 0  0
0 0  0
0 0  0
0 0  0
0 0  0
0 0  0
0 0  0
0 0  0
0 0  0
0 0  0
0 0  0
0 0  0
0 0  0
0 0  0
0 0  0
0 0  0
0 0  0
0 0  0
0 0  0
0 0  0
0 0  0
0 0  0
0 0  0
0 0  0
0 0  0
0 0  0
0 0  0
0 0  0
0 0  0
0 0  0
0 0  0
0 0  0
0 0  0
0 0  0
0 0  0
0 0  0
0 0  0
0 0  0
0 0  0
0 0  0
0 0  0
0 0  0
0 0  0
0 0  0
0 0  0
0 0  0
0 0  0
0 0  0
0 0  0
0 0  0
0 0  0
0 0  0
0 0  0
0 0  0
0 0  0
0 0  0
0 0  0
0 0  0
0 0  0
0 0  0
0 0  0
0 0  0
0 0  0
0 0  0
0 0  0
0 0  0
0 0  0
0 0  0
0 0  0
0 0  0
0 0  0
0 0  0
0 0  0
0 0  0
0 0  0
0 0  0
0 0  0
0 0  0
0 0  0
0 0  0
0 0  0
0 0  0
0 0  0
0 0  0
0 0  0
0 0  0
0 0  0
0 0  0
0 0  0
0 0  0
0 0  0
0 0  0
0 0  0
0 0  0
0 0  0
0 0  0
0 0  0
0 0  0
0 0  0
0 0  0
0 0  0
0 0  0
0 0  0
0 0  0
0 0  0
0 0  0
0 0  0
0 0  0
0 0  0
0 0  0
0 0  0
0 0  0
0 0  0
0 0  0
0 0  0
0 0  0
0 0  0
0 0  0
0 0  0
0 0  0
0 0  0
0 0  0
0 0  0
0 0  0
0 0  0
0 0  0
0 0  0
0 0  0
0 0  0
0 0  0
0 0  0
0 0  0
0 0  0
0 0  0
0 0  0
0 0  0
0 0  0
0 0  0
0 0  0
0 0  0
0 0  0
0 0  0
0 0  0
0 0  0
0 0  0
0 0  0
0 0  0
0 0  0
0 0  0
0 0  0
0 0  0
0 0  0
0 0  0
0 0  0
0 0  0
0 0  0
0 0  0
0 0  0
0 0  0
0 0  0
0 0  0
0 0  0
0 0  0
0 0  0
0 0  0
0 0  0
0 0  0
0 0  0
0 0  0
0 0  0
0 0  0
0 0  0
0 0  0
0 0  0
0 0  0
0 0  0
0 0  0
0 0  0
0 0  0
0 0  0
0 0  0
0 0  0
0 0  0
0 0  0
0 0  0
0 0  0
0 0  0
0 0  0
0 0  0
0 0  0
0 0  0
0 0  0
0 0  0
0 0  0
0 0  0
0 0  0
0 0  0
0 0  0
0 0  0
0 0  0
0 0  0
0 0  0
0 0  0
0 0  0
0 0  0
0 0  0
0 0  0
0 0  0
0 0  0
0 0  0
0 0  0
0 0  0
0 0  0
0 0  0
0 0  0
0 0  0
0 0  0
0 0  0
0 0  0
0 0  0
0 0  0
0 0  0
0 0  0
0 0  0
0 0  0
0 0  0
0 0  0
0 0  0
0 0  0
0 0  0
0 0  0
0 0  0
0 0  0
0 0  0
0 0  0
0 0  0
0 0  0
0 0  0
0 0  0
0 0  0
0 0  0
0 0  0
0 0  0
0 0  0
0 0  0
0 0  0
0 0  0
0 0  0
0 0  0
0 0  0
0 0  0
0 0  0
0 0  0
0 0  0
0 0  0
0 0  0
0 0  0
0 0  0
0 0  0
0 0  0
0 0  0
0 0  0
0 0  0

SCALARS pressure double 1
LOOKUP_TABLE default
2.75675
2.75894
2.76308
2.76917
2.77715
2.78698
2.79859
2.81189
2.82676
2.84301
2.86043
2.87866
2.89723
2.91562
2.93321
2.94937
2.96345
2.97468
2.98244
2.98635
2.98619
2.98199
2.97396
2.96254
2.94833
2.93204
2.91443
2.89624
2.87819
2.86091
2.84491
2.83064
2.81844
2.80857
2.80126
2.79664
2.79487
2.79608
2.80044
2.8067
2.55499
2.55712
2.56123
2.56725
2.57517
2.58494
2.59655
2.60986
2.62485
2.64134
2.65907
2.67768
2.69678
2.7158
2.73417
2.75118
2.76589
2.77763
2.78582
2.78999
2.78989
2.78551
2.7771
2.76515
2.7503
2.73332
2.71502
2.69621
2.6776
2.65985
2.64347
2.6289
2.61646
2.60642
2.59897
2.59424
2.59234
2.5934
2.5976
2.60381
2.35129
2.35338
2.35743
2.36338
2.37124
2.38101
2.39261
2.40612
2.42141
2.43833
2.45668
2.47616
2.49634
2.51676
2.53669
2.55505
2.57112
2.58407
2.59317
2.59783
2.59777
2.59298
2.58376
2.57065
2.55442
2.53595
2.51619
2.49603
2.47625
2.45751
2.44034
2.42513
2.4122
2.40179
2.39405
2.38909
2.38698
2.38778
2.39164
2.3974
2.14564
2.1477
2.15167
2.15754
2.16535
2.17506
2.18681
2.20053
2.21621
2.23378
2.25308
2.27387
2.29585
2.31838
2.34038
2.36109
2.37941
2.3943
2.40482
2.41028
2.4103
2.40484
2.39426
2.37925
2.36075
2.33991
2.31782
2.29554
2.27394
2.25369
2.23531
2.21917
2.20553
2.19457
2.18643
2.18118
2.17883
2.1794
2.18294
2.18828
1.93809
1.94008
1.94395
1.94972
1.9574
1.96714
1.97894
1.9929
2.00905
2.02742
2.04796
2.0706
2.09494
2.12008
2.1453
2.16939
2.19102
2.20877
2.22144
2.22809
2.2282
2.22173
2.20913
2.19129
2.16947
2.14512
2.1197
2.09444
2.07034
2.04807
2.02813
2.01079
1.99624
1.98461
1.97599
1.97043
1.96791
1.96836
1.97176
1.97684
1.72866
1.73056
1.7343
1.73989
1.74745
1.75706
1.76888
1.78299
1.79962
1.81886
1.84092
1.86575
1.8928
1.92161
1.9512
1.98006
2.00639
2.02826
2.04395
2.05229
2.05255
2.04464
2.02914
2.00724
1.98068
1.95144
1.92144
1.89224
1.86494
1.84022
1.81841
1.79968
1.78409
1.7717
1.76257
1.75672
1.75413
1.75467
1.75817
1.76322
1.51741
1.5192
1.52275
1.52811
1.53541
1.54478
1.55641
1.57057
1.58749
1.60762
1.63123
1.65828
1.68878
1.72231
1.75774
1.79318
1.82607
1.85369
1.87367
1.88432
1.8848
1.87492
1.85537
1.82777
1.79454
1.75853
1.72242
1.6882
1.65705
1.62951
1.60569
1.58549
1.5688
1.55558
1.54589
1.53982
1.53735
1.53822
1.54209
1.54739
1.30441
1.30607
1.30936
1.31438
1.32126
1.33019
1.34142
1.35529
1.3723
1.39298
1.4178
1.44721
1.48167
1.52105
1.56415
1.60858
1.6507
1.68642
1.7123
1.72615
1.727
1.7145
1.6894
1.65377
1.61109
1.56571
1.52154
1.48112
1.4456
1.41513
1.38938
1.36783
1.35008
1.33597
1.32562
1.31937
1.31731
1.31884
1.32339
1.32926
1.08981
1.09128
1.09424
1.09879
1.10505
1.11327
1.12375
1.13695
1.15349
1.17409
1.19955
1.23105
1.26968
1.31585
1.36893
1.42592
1.48118
1.52829
1.56224
1.58031
1.58177
1.56599
1.53343
1.48643
1.43015
1.37159
1.31688
1.26917
1.22913
1.19609
1.16889
1.14639
1.12774
1.11259
1.10127
1.09478
1.09378
1.09659
1.10224
1.10915
0.87376
0.875008
0.877546
0.881449
0.886878
0.894068
0.903369
0.915315
0.930595
0.950105
0.975211
1.00777
1.04985
1.10352
1.16936
1.24417
1.3187
1.38193
1.42643
1.4497
1.45213
1.43281
1.39074
1.32756
1.25096
1.17338
1.10513
1.04953
1.00567
0.9712
0.943688
0.921082
0.901876
0.885339
0.872071
0.864711
0.866636
0.872262
0.880004
0.888772
0.656481
0.657468
0.659477
0.662584
0.666935
0.672755
0.680388
0.690353
0.703347
0.720449
0.743414
0.774773
0.818191
0.878498
0.960016
1.06109
1.16501
1.25115
1.30819
1.3367
1.3407
1.31895
1.26631
1.17995
1.07143
0.965308
0.880541
0.818037
0.772722
0.739281
0.713503
0.692279
0.673227
0.654692
0.636852
0.6253
0.636038
0.64816
0.660817
0.67298
0.438232
0.438917
0.440311
0.442477
0.445528
0.449643
0.455104
0.462318
0.471904
0.484916
0.503115
0.529459
0.569211
0.631343
0.729234
0.872066
1.02249
1.14136
1.20939
1.24017
1.24654
1.2271
1.16767
1.04796
0.886666
0.734587
0.633016
0.569007
0.527706
0.4995
0.478572
0.461085
0.443771
0.422875
0.394364
0.362577
0.403436
0.428885
0.454215
0.471843
0.219317
0.219667
0.220382
0.221495
0.223071
0.225208
0.228065
0.231871
0.237007
0.244152
0.254503
0.27042
0.297026
0.346528
0.448995
0.666673
0.892377
1.05799
1.12252
1.14676
1.15618
1.14968
1.10284
0.935352
0.683599
0.44953
0.346212
0.296467
0.269172
0.252115
0.23989
0.229333
0.217255
0.197174
0.148196
0.0205448
0.179656
0.219967
0.273555
0.300778
-6.24054e-06
-6.07771e-06
-5.57789e-06
-4.61401e-06
-2.93877e-06
-1.84794e-07
4.42606e-06
1.21253e-05
2.53738e-05
4.9375e-05
9.51996e-05
0.000194165
0.000529621
0.00361153
0.0392827
0.425416
0.74287
0.977593
1.0014
1.01495
1.02709
1.03688
1.03596
0.799691
0.42666
0.0216524
0.00161055
0.000107397
-0.000259672
-0.000518597
-0.000849453
-0.00141682
-0.0024546
-0.00404052
-0.0159163
0
0.0375525
0
0.1171
0.152069
0
0
0
0
0
0
0
0
0
0
0
0
0
0
0
0.182498
0.30577
0.582253
0.75424
0.794054
0.807719
0.792231
0.61607
0.318758
0.163977
0
0
0
0
0
0
0
0
0
0
0
0
0
0.010905
0.00392134
0
0
0
0
0
0
0
0
0
0
0
0
0
0
0
0
-0.0708441
0.150606
0.421463
0.518123
0.53393
0.471282
0.234072
0
0
0
0
0
0
0
0
0
0
0
0
0
0
0
0.0503193
-0.0693166
0
0
0
0
0
0
0
0
0
0
0
0
0
0
0
0
0
-0.00140176
0.20142
0.291775
0.307093
0.255934
0.128362
0.177332
0
0
0
0
0
0
0
0
0
0
0
0
0
0
0
0
0
0
0
0
0
0
0
0
0
0
0
0
0
0
0
0
0
-0.0155872
0.0763999
0.12437
0.130497
0.0906261
-0.026482
0
0
0
0
0
0
0
0
0
0
0
0
0
0
0
0
0
0
0
0
0
0
0
0
0
0
0
0
0
0
0
0
0
0
-0.132382
-0.00983309
-0.00823006
-0.00681021
-0.00797307
0
0
0
0
0
0
0
0
0
0
0
0
0
0
0
0
0
0
0
0
0
0
0
0
0
0
0
0
0
0
0
0
0
0
0
0
0
0
0
0
0
0
0
0
0
0
0
0
0
0
0
0
0
0
0
0
0
0
0
0
0
0
0
0
0
0
0
0
0
0
0
0
0
0
0
0
0
0
0
0
0
0
0
0
0
0
0
0
0
0
0
0
0
0
0
0
0
0
0
0
0
0
0
0
0
0
0
0
0
0
0
0
0
0
0
0
0
0
0
0
0
0
0
0
0
0
0
0
0
0
0
0
0
0
0
0
0
0
0
0
0
0
0
0
0
0
0
0
0
0
0
0
0
0
0
0
0
0
0
0
0
0
0
0
0
0
0
0
0
0
0
0
0
0
0
0
0
0
0
0
0
0
0
0
0
0
0
0
0
0
0
0
0
0
0
0
0
0
0
0
0
0
0
0
0
0
0
0
0
0
0
0
0
0
0
0
0
0
0
0
0
0
0
0
0
0
0
0
0
0
0
0
0
0
0
0
0
0
0
0
0
0
0
0
0
0
0
0
0
0
0
0
0
0
0
0
0
0
0
0
0
0
0
0
0
0
0
0
0
0
0
0
0
0
0
0
0
0
0
0
0
0
0
0
0
0
0
0
0
0
0
0
0
0
0
0
0
0
0
0
0
0
0
0
0
0
0
0
0
0
0
0
0
0
0
0
0
0
0
0
0
0
0
0
0
0
0
0
0
0
0
0
0
0
0
0
0
0
0
0
0
0
0
0
0
0
0
0
0
0
0
0
0
0
0
0
0
0
0
0
0
0
0
0
0
0
0
0
0
0
0
0
0
0
0
0
0
0
0
0
0
0
0
0
0
0
0
0
0
0
0
0
0
0
0
0
0
0
0
0
0
0
0
0
0
0
0
0
0
0
0
0
0
0
0
0
0
0
0
0
0
0
0
0
0
0
0
0
0
0
0
0
0
0
0
0
0
0
0
0
0
0
0
0
0
0
0
0
0
0
0
0
0
0
0
0
0
0
SCALARS rhs double 1
LOOKUP_TABLE default
-4.85374
-4.92136
-4.92401
-4.92783
-4.93099
-4.93498
-4.93782
-4.94151
-4.94305
-4.9426
-4.94415
-4.94637
-4.94704
-4.94673
-4.94284
-4.93843
-4.94194
-4.94499
-4.94484
-4.94363
-4.9427
-4.94205
-4.94142
-4.94057
-4.93949
-4.93847
-4.93793
-4.93663
-4.9356
-4.93482
-4.93407
-4.93337
-4.93321
-4.93284
-4.93255
-4.93256
-4.93216
-4.93185
-4.96715
-5.17266
0.0780118
0.0172178
0.0149819
0.0147411
0.0127118
0.0137425
0.0110984
0.0139586
0.0152661
0.011957
0.0118306
0.0133683
0.0137337
0.0188268
0.0198375
0.00875813
0.0101849
0.0133326
0.013355
0.0126131
0.0120212
0.012119
0.012917
0.0137293
0.0139659
0.013584
0.0148167
0.0147739
0.0150136
0.0153579
0.0154697
0.0147918
0.0151929
0.0152469
0.0147706
0.0144919
0.0154282
0.0174151
-0.0156578
-0.230657
0.0725389
0.0151897
0.0130689
0.0121919
0.0130094
0.00948232
0.014555
0.0128546
0.0100976
0.0117373
0.011946
0.0122338
0.0190356
0.0175265
0.00382547
0.0107974
0.0119598
0.0116788
0.0102425
0.0100016
0.0109709
0.0117413
0.0117578
0.0116097
0.0115582
0.0134884
0.0131505
0.0135718
0.013671
0.0136221
0.0128628
0.0138669
0.0135637
0.0130093
0.0131014
0.0132205
0.0144703
0.0182861
-0.00966863
-0.200582
0.0677226
0.0123321
0.0115271
0.0116616
0.00900981
0.0139564
0.0103541
0.0103409
0.0106536
0.0102208
0.0115194
0.0178729
0.0149735
0.00163321
0.0111177
0.00888943
0.00960604
0.00931276
0.0100095
0.0100379
0.0092633
0.00924378
0.00999842
0.0102913
0.0117498
0.0110549
0.011904
0.0120312
0.0122509
0.0115586
0.0127746
0.0117585
0.0117704
0.0119907
0.0116735
0.0117479
0.0134761
0.0180533
-0.00726003
-0.181642
0.061439
0.0104114
0.010623
0.00825683
0.0120619
0.00893632
0.0102411
0.0082909
0.00985315
0.0100039
0.0150015
0.0137474
0.000597337
0.00873079
0.00739428
0.00871854
0.00796168
0.00908183
0.00782484
0.00654808
0.00718342
0.00733804
0.00706557
0.00851416
0.00899826
0.0101411
0.0103015
0.0106367
0.0100123
0.0111305
0.010002
0.0106191
0.0102638
0.00996547
0.0101233
0.0103349
0.0118518
0.0158949
-0.00919828
-0.173016
0.0542528
0.00936099
0.00775931
0.00945223
0.00837305
0.00886951
0.00648558
0.00957757
0.00714703
0.0127691
0.0126245
-0.000749832
0.00612015
0.00774273
0.00695939
0.00715773
0.00570211
0.00340822
0.00512943
0.00329274
0.00253835
0.0031943
0.00491718
0.00610224
0.00710417
0.00815556
0.0089612
0.00881705
0.0095073
0.00876965
0.00919273
0.00849799
0.00858541
0.00846216
0.00830376
0.0086284
0.0099606
0.0120147
-0.0159947
-0.174538
0.0472958
0.00703631
0.00700222
0.0076499
0.00676463
0.00589918
0.00764147
0.00518102
0.0107623
0.00979019
7.24273e-05
0.00367548
0.00642349
0.0065436
0.00502817
0.000839629
0.000566112
-0.000801196
-0.00202251
-0.00146855
-0.00283721
-0.00173935
0.000583094
0.00265274
0.0048081
0.0060431
0.0067684
0.00733577
0.00743954
0.00735341
0.00696843
0.00690887
0.00649325
0.00648734
0.00655313
0.0067928
0.00803243
0.00800978
-0.0244313
-0.183717
0.0399794
0.00511729
0.00604477
0.00516815
0.00493504
0.00509083
0.00468938
0.00721662
0.00723912
0.00236895
0.000213107
0.00465891
0.00666031
0.000379035
-0.00109366
-0.00305366
-0.00790969
-0.010324
-0.0120906
-0.0103256
-0.0135668
-0.0110705
-0.00776575
-0.00367351
5.36892e-05
0.00292862
0.00446353
0.00547665
0.00542418
0.00543895
0.00506024
0.0047144
0.00452134
0.00434562
0.0045449
0.00501954
0.00707195
0.00839593
-0.0240997
-0.191487
0.0322331
0.00402058
0.00384982
0.00333351
0.00321879
0.00365077
0.00382795
0.00549068
0.00284613
-0.00149671
0.00302633
0.00469587
-0.00337023
-0.000531225
-0.0065649
-0.0153801
-0.0221884
-0.0300075
-0.0352069
-0.0297554
-0.0359224
-0.0319359
-0.0246752
-0.0165946
-0.00905904
-0.00300773
0.000821296
0.00243601
0.00296762
0.00288199
0.00262839
0.00221194
0.00191023
0.00188765
0.00233199
0.00323337
0.00796113
0.0219598
0.00722593
-0.176292
0.0247533
0.00234319
0.00161211
0.00178535
0.00180284
0.00181103
0.00305241
0.00205957
-0.00101662
0.00015212
0.00206039
-0.00294573
-0.00326248
-0.0106611
-0.0168779
-0.0364778
-0.0595393
-0.0752417
-0.087251
-0.0773019
-0.0850155
-0.0829635
-0.0683078
-0.0509493
-0.0316195
-0.011237
-0.0033322
-0.00113707
-0.000846169