# vtk DataFile Version 4.0
Nusif Fluid VTK output
ASCII
DATASET STRUCTURED_POINTS
DIMENSIONS 40 30 1
ORIGIN 0 0 0 
SPACING 0.2 0.2 1
POINT_DATA 1200 

VECTORS velocity double
0.00251437 -0.00239426  0
0.0074306 -0.00222153  0
0.0119138 -0.00190029  0
0.0156402 -0.00146466  0
0.0184201 -0.00095525  0
0.0201474 -0.000414312  0
0.0207973 0.000120917  0
0.0204146 0.000616712  0
0.0191307 0.00107926  0
0.0170494 0.00140199  0
0.0143505 0.00167458  0
0.0112768 0.00182258  0
0.00800531 0.00185643  0
0.00475915 0.00179592  0
0.00174685 0.00163649  0
-0.000868388 0.00139933  0
-0.00296117 0.00111388  0
-0.00446496 0.000812418  0
-0.00538743 0.000531931  0
-0.00580771 0.000307869  0
-0.00586044 0.000162869  0
-0.00570846 0.000100778  0
-0.00550329 0.000105889  0
-0.00534848 0.000147141  0
-0.0052778 0.000186468  0
-0.00525078 0.000187052  0
-0.00516228 0.000120123  0
-0.00486022 -3.18386e-05  0
-0.00416884 -0.000272597  0
-0.00291757 -0.000591478  0
-0.000977683 -0.000959576  0
0.00169238 -0.001322  0
0.00499373 -0.00159298  0
0.00863024 -0.00165913  0
0.0120705 -0.00139764  0
0.0145726 -0.000721143  0
0.0153189 0.000357978  0
0.0136782 0.00166539  0
0.00952051 0.00287436  0
0.00341848 0.00360921  0
0.00268472 -0.00728973  0
0.00791843 -0.006755  0
0.0126624 -0.00575882  0
0.0165761 -0.00441029  0
0.0194615 -0.00284003  0
0.0212156 -0.00117794  0
0.0218214 0.000458835  0
0.0213673 0.0020011  0
0.0199117 0.00332116  0
0.0176423 0.00438488  0
0.0147713 0.0051582  0
0.0114628 0.00560714  0
0.00798839 0.00571978  0
0.00455675 0.0055128  0
0.0013774 0.005015  0
-0.00135398 0.00427824  0
-0.00350389 0.00338662  0
-0.00500198 0.00244815  0
-0.00585542 0.00157898  0
-0.00615783 0.000888636  0
-0.00607201 0.000450768  0
-0.00579239 0.000280099  0
-0.00549917 0.000323907  0
-0.00531589 0.000481764  0
-0.00528337 0.000633223  0
-0.00535574 0.000664336  0
-0.00541378 0.000486259  0
-0.00528698 4.57436e-05  0
-0.00478138 -0.00067268  0
-0.00371131 -0.00163859  0
-0.00193327 -0.00275929  0
0.000608144 -0.00386499  0
0.00382184 -0.0046968  0
0.00741357 -0.00491524  0
0.0108536 -0.00415405  0
0.0134079 -0.00215433  0
0.0142751 0.0010434  0
0.0128388 0.00492144  0
0.00897112 0.00850748  0
0.00322663 0.0106861  0
0.00303703 -0.0126403  0
0.00892976 -0.0116832  0
0.0142153 -0.00990587  0
0.0185115 -0.0075183  0
0.0216064 -0.00475922  0
0.023405 -0.0018598  0
0.0239413 0.000998593  0
0.0232486 0.00361794  0
0.0214934 0.00587204  0
0.0188741 0.00770307  0
0.0155717 0.00900359  0
0.0118533 0.00975415  0
0.00794852 0.0099323  0
0.00412257 0.00954346  0
0.00061782 0.00864381  0
-0.00235326 0.00732593  0
-0.00462059 0.00573276  0
-0.00609961 0.00405384  0
-0.00680692 0.00250676  0
-0.00686457 0.00129396  0
-0.00648848 0.000555149  0
-0.00594184 0.000318636  0
-0.00546731 0.000484377  0
-0.00522686 0.000861413  0
-0.00527274 0.00122623  0
-0.00554757 0.00137307  0
-0.00590441 0.00114589  0
-0.00614006 0.000448289  0
-0.00602697 -0.000746692  0
-0.00534 -0.00238206  0
-0.00389928 -0.00429794  0
-0.00162472 -0.0062039  0
0.00140655 -0.00766041  0
0.00490613 -0.00809672  0
0.00835029 -0.00690774  0
0.0110195 -0.00367271  0
0.0121403 0.00152809  0
0.0111265 0.00784407  0
0.00785417 0.0136853  0
0.0028376 0.0172324  0
0.00359754 -0.0188927  0
0.0105347 -0.0173958  0
0.0166654 -0.0146456  0
0.0215453 -0.0109943  0
0.0249484 -0.00682153  0
0.0268199 -0.00247052  0
0.0271695 0.0017434  0
0.0261363 0.00556219  0
0.0239184 0.008877  0
0.0207237 0.0115045  0
0.0168062 0.013393  0
0.0124201 0.0144571  0
0.00786721 0.0146683  0
0.00343783 0.0140425  0
-0.000574912 0.0126422  0
-0.00390389 0.0106055  0
-0.00634723 0.00814363  0
-0.00779486 0.00554978  0
-0.00826719 0.00316913  0
-0.00793643 0.00133554  0
-0.00710449 0.000281533  0
-0.00614007 5.16539e-05  0
-0.00538208 0.000475743  0
-0.00505371 0.00123887  0
-0.00522352 0.00198121  0
-0.00581421 0.00238352  0
-0.00664112 0.0022078  0
-0.00745155 0.00131356  0
-0.0079576 -0.000336752  0
-0.00788004 -0.00266404  0
-0.00699083 -0.00544057  0
-0.00516474 -0.00824665  0
-0.00244648 -0.0104451  0
0.000892472 -0.011222  0
0.00433898 -0.00973732  0
0.00719703 -0.00542737  0
0.0087339 0.00157476  0
0.00840341 0.0100971  0
0.0060842 0.0179839  0
0.00222284 0.0227747  0
0.00438963 -0.0264829  0
0.0127902 -0.0242606  0
0.020086 -0.0202378  0
0.0257552 -0.0149815  0
0.0295699 -0.00905701  0
0.0314697 -0.00297997  0
0.0315511 0.00279603  0
0.0300402 0.00803234  0
0.0271736 0.0124814  0
0.02321 0.0160359  0
0.0184368 0.0185493  0
0.013156 0.0199454  0
0.00771081 0.0201635  0
0.00246354 0.0192092  0
-0.0022302 0.0171674  0
-0.00604385 0.0142102  0
-0.00871612 0.0106382  0
-0.0101063 0.00687691  0
-0.010249 0.00344101  0
-0.00937981 0.00084522  0
-0.00792239 -0.00055528  0
-0.0063934 -0.000689054  0
-0.00525813 0.000185059  0
-0.00481508 0.00158322  0
-0.00515201 0.00296208  0
-0.00617041 0.00384816  0
-0.00763733 0.00390183  0
-0.00923839 0.00292848  0
-0.0106255 0.000873668  0
-0.0114499 -0.00216621  0
-0.0114065 -0.00589156  0
-0.0102956 -0.00974012  0
-0.00810073 -0.0128616  0
-0.00505326 -0.0141832  0
-0.0016378 -0.0126288  0
0.00148736 -0.00751318  0
0.00364951 0.000962258  0
0.00435339 0.0113313  0
0.00346312 0.0209485  0
0.00131514 0.026802  0
0.0054027 -0.0358653  0
0.0156623 -0.0326391  0
0.0244139 -0.0269246  0
0.0310578 -0.0196106  0
0.0353412 -0.0114991  0
0.0372352 -0.00334083  0
0.036961 0.00432932  0
0.0348245 0.011143  0
0.0311406 0.0169075  0
0.0262242 0.0214805  0
0.0203799 0.0247127  0
0.013973 0.02646  0
0.00741137 0.0266417  0
0.00114218 0.0252422  0
-0.00439494 0.0223557  0
-0.0087894 0.0182161  0
-0.0117171 0.0132236  0
-0.0130137 0.00796903  0
-0.0127316 0.00319562  0
-0.0112038 -0.000379691  0
-0.00899927 -0.00217738  0
-0.00678474 -0.00205592  0
-0.00516992 -0.000422673  0
-0.00455646 0.00197584  0
-0.00507418 0.00433852  0
-0.0066107 0.00600196  0
-0.00888616 0.00651189  0
-0.0115265 0.00561292  0
-0.0141137 0.00322457  0
-0.016219 -0.000537921  0
-0.0174381 -0.00530904  0
-0.0174614 -0.0103885  0
-0.016161 -0.0146982  0
-0.0136683 -0.0168836  0
-0.0103903 -0.015622  0
-0.00691548 -0.0101212  0
-0.00383915 -0.000669467  0
-0.00160093 0.0110194  0
-0.000377151 0.0219228  0
-1.08931e-05 0.0286031  0
0.00653986 -0.0473827  0
0.0188567 -0.0427744  0
0.0292 -0.0348823  0
0.0369375 -0.0250116  0
0.0417559 -0.0141902  0
0.0436377 -0.0034414  0
0.0429021 0.0064444  0
0.0400248 0.0150385  0
0.0354321 0.0222773  0
0.0294357 0.0280234  0
0.0223608 0.0320809  0
0.0146293 0.0342269  0
0.0067584 0.0343057  0
-0.000695014 0.0322927  0
-0.00716661 0.0283088  0
-0.0121653 0.0226542  0
-0.0153223 0.0158658  0
-0.0164551 0.00874651  0
-0.0157037 0.00223165  0
-0.0134672 -0.00248799  0
-0.0103922 -0.0046027  0
-0.00736347 -0.00399565  0
-0.00519144 -0.00128607  0
-0.00437959 0.00246788  0
-0.00508621 0.00616138  0
-0.00719369 0.00891344  0
-0.0104034 0.0101489  0
-0.0143165 0.00955445  0
-0.0184702 0.00701993  0
-0.0223555 0.00264169  0
-0.0254506 -0.00319149  0
-0.0272732 -0.0096763  0
-0.0274849 -0.0155165  0
-0.0260168 -0.0190458  0
-0.0231093 -0.018666  0
-0.0192182 -0.013463  0
-0.0148287 -0.00381128  0
-0.010329 0.00840797  0
-0.00598824 0.0199568  0
-0.00194176 0.0271486  0
0.0074788 -0.060956  0
0.0214365 -0.0545244  0
0.0331221 -0.0441402  0
0.0420571 -0.0314018  0
0.0476444 -0.0172094  0
0.0495519 -0.00320308  0
0.0482621 0.00923864  0
0.0446268 0.0197536  0
0.039177 0.0286092  0
0.0321112 0.0357502  0
0.0237257 0.0408195  0
0.0145256 0.0434222  0
0.00520098 0.043304  0
-0.00349441 0.0404417  0
-0.0108758 0.0350181  0
-0.0163728 0.0274442  0
-0.0195965 0.0184474  0
-0.0205081 0.00895407  0
-0.0191751 0.000589705  0
-0.0160422 -0.00532145  0
-0.0121034 -0.00775424  0
-0.0083459 -0.00654451  0
-0.00561372 -0.00253974  0
-0.00449735 0.00286243  0
-0.00525095 0.00824098  0
-0.00782088 0.0124873  0
-0.0119554 0.0148844  0
-0.0172949 0.0150365  0
-0.0233972 0.0127626  0
-0.0297158 0.00807837  0
-0.0355801 0.00131317  0
-0.0402397 -0.00670793  0
-0.0429923 -0.0145172  0
-0.0433837 -0.0201092  0
-0.0413113 -0.0215654  0
-0.0369944 -0.0177544  0
-0.0307717 -0.00911803  0
-0.0230101 0.00246287  0
-0.0141369 0.0136953  0
-0.0047381 0.0209711  0
0.00740062 -0.0753698  0
0.0209739 -0.0666625  0
0.0328529 -0.0545353  0
0.0434774 -0.0395524  0
0.0507897 -0.020948  0
0.052973 -0.00253774  0
0.0510016 0.0128406  0
0.0467473 0.0250503  0
0.0408305 0.035686  0
0.0329498 0.0446235  0
0.0232347 0.0510577  0
0.0124097 0.0542142  0
0.00152151 0.0537264  0
-0.00838747 0.0496373  0
-0.016464 0.0422862  0
-0.0221086 0.0323097  0
-0.0251504 0.0205316  0
-0.0253433 0.00869366  0
-0.0230508 -0.00171369  0
-0.0192065 -0.00891511  0
-0.0145271 -0.0116903  0
-0.009986 -0.00986798  0
-0.00650191 -0.00444607  0
-0.00474474 0.00287024  0
-0.00511322 0.0103358  0
-0.00774823 0.0165826  0
-0.0125826 0.0207446  0
-0.0194029 0.0223349  0
-0.0278692 0.0210477  0
-0.0374421 0.0167063  0
-0.0472954 0.00942306  0
-0.0563027 -0.000138119  0
-0.0631726 -0.0104572  0
-0.0667775 -0.0191666  0
-0.0663275 -0.0240231  0
-0.0616568 -0.0232734  0
-0.0529674 -0.0174971  0
-0.0407294 -0.00814168  0
-0.0255577 0.0012725  0
-0.00864314 0.00809757  0
0.00483283 -0.0871187  0
0.0125713 -0.0752237  0
0.0211402 -0.0654244  0
0.0353253 -0.0525018  0
0.047768 -0.0267526  0
0.0508844 -0.00102686  0
0.0476194 0.017577  0
0.0432168 0.0299843  0
0.0381196 0.0427733  0
0.0300459 0.0545078  0
0.0188933 0.06305  0
0.00604181 0.0669069  0
-0.00667598 0.0656577  0
-0.0177103 0.0596577  0
-0.0260283 0.0496592  0
-0.0312766 0.0365384  0
-0.0330501 0.0219203  0
-0.0318368 0.00741634  0
-0.0284778 -0.00501316  0
-0.0234777 -0.0134328  0
-0.017793 -0.0165544  0
-0.0121247 -0.0142075  0
-0.00725208 -0.00745043  0
-0.00403425 0.00189199  0
-0.00318686 0.0118325  0
-0.0051628 0.0207101  0
-0.0101526 0.0274591  0
-0.0181915 0.0314882  0
-0.0291849 0.0323554  0
-0.0427708 0.0295617  0
-0.0581175 0.0227818  0
-0.0736689 0.0120881  0
-0.0870684 -0.00138404  0
-0.0960022 -0.0146714  0
-0.098224 -0.0257185  0
-0.0931264 -0.0303224  0
-0.0811078 -0.030134  0
-0.063288 -0.0245398  0
-0.0402433 -0.0195222  0
-0.013604 -0.0136373  0
-0.000984721 -0.0904678  0
-0.00730201 -0.0723113  0
-0.0115902 -0.0716278  0
0.00881919 -0.0798973  0
0.035865 -0.0378658  0
0.0403275 0.00348103  0
0.0325513 0.0250907  0
0.0290322 0.0313952  0
0.0283807 0.0481279  0
0.0212493 0.0653743  0
0.00793148 0.0776676  0
-0.00817385 0.0822662  0
-0.0234365 0.0792957  0
-0.0354929 0.0701148  0
-0.0434087 0.0562402  0
-0.0467639 0.0393776  0
-0.0461721 0.0214108  0
-0.0425467 0.00415453  0
-0.0367139 -0.00999892  0
-0.0297277 -0.0193851  0
-0.0219332 -0.0230428  0
-0.0137562 -0.0205691  0
-0.00599897 -0.0127196  0
0.000216786 -0.00125392  0
0.00370974 0.0116465  0
0.00360728 0.0239706  0
-0.000531332 0.0343332  0
-0.00892853 0.0420713  0
-0.0218667 0.0467305  0
-0.0395849 0.0475115  0
-0.0619381 0.0435504  0
-0.0872758 0.0332303  0
-0.11075 0.0153758  0
-0.12809 -0.00414423  0
-0.13359 -0.0275285  0
-0.126799 -0.0393893  0
-0.109951 -0.0489096  0
-0.0864737 -0.0460345  0
-0.0560797 -0.0504375  0
-0.0188429 -0.0455711  0
-0.00734189 -0.081889  0
-0.0211742 -0.0602606  0
-0.0524827 -0.0475733  0
-0.0347843 -0.141255  0
0.0214987 -0.0588204  0
0.0230107 0.0194674  0
-0.000307034 0.0412184  0
-0.000706292 0.0201895  0
0.0110043 0.0492587  0
0.00516309 0.0782017  0
-0.0131262 0.0974561  0
-0.035442 0.101917  0
-0.0543903 0.0948651  0
-0.0671555 0.0802807  0
-0.0732114 0.0608552  0
-0.0731532 0.0391962  0
-0.0683138 0.0172066  0
-0.0601866 -0.00245068  0
-0.0500739 -0.0182135  0
-0.0387855 -0.0284675  0
-0.0262913 -0.0332356  0
-0.0125782 -0.031245  0
0.00102776 -0.0224067  0
0.0126683 -0.00841246  0
0.0206905 0.00831993  0
0.0240117 0.0251124  0
0.0222881 0.0400727  0
0.0154277 0.0526065  0
0.00266099 0.0629221  0
-0.0175553 0.0702868  0
-0.047549 0.074161  0
-0.0874295 0.0688683  0
-0.124792 0.0415679  0
-0.1549 0.0180917  0
-0.16291 -0.0352477  0
-0.149998 -0.0503615  0
-0.127202 -0.0765773  0
-0.0998662 -0.0681716  0
-0.067422 -0.0901354  0
-0.0228086 -0.0867217  0
-0.0177303 -0.0372735  0
-0.0470702 -0.0268851  0
-0.01964 -0.103126  0
0.0193997 -0.183496  0
0.0284326 -0.0813681  0
0.00404049 0.0654257  0
-0.0425834 0.0659876  0
-0.0285521 -0.0172129  0
-0.00424053 0.0516366  0
-0.018468 0.0968974  0
-0.0483683 0.12794  0
-0.0814582 0.127827  0
-0.104156 0.111575  0
-0.115832 0.0888677  0
-0.118316 0.0618706  0
-0.112849 0.0337151  0
-0.101464 0.0074698  0
-0.08635 -0.0148811  0
-0.0689061 -0.0323544  0
-0.0501896 -0.0432834  0
-0.0291632 -0.0509376  0
-0.00519492 -0.0502005  0
0.0183987 -0.0396024  0
0.0384835 -0.0219159  0
0.0531705 0.00012983  0
0.0615993 0.0225752  0
0.0640922 0.0428736  0
0.0611973 0.0605903  0
0.0518001 0.078128  0
0.0334579 0.0946574  0
1.0533e-05 0.114249  0
-0.0604282 0.13011  0
-0.108084 0.0663226  0
-0.155275 0.071378  0
-0.173642 -0.0616258  0
-0.147356 -0.0626629  0
-0.126514 -0.107418  0
-0.0967172 -0.0939662  0
-0.0645307 -0.128483  0
-0.0238721 -0.133157  0
0 0  0
0 0  0
0.00969986 -0.0917481  0
-0.0271479 -0.0917481  0
-0.112741 -0.0452005  0
-0.0370543 0.0891385  0
0.0776776 0.0794264  0
0.066954 -0.0334674  0
0.00670135 0.104356  0
-0.0549802 0.120858  0
-0.0958453 0.175753  0
-0.141739 0.160009  0
-0.16421 0.125503  0
-0.171895 0.0952676  0
-0.171147 0.0582913  0
-0.159616 0.0213171  0
-0.139588 -0.0105309  0
-0.114666 -0.0358678  0
-0.0865285 -0.0559439  0
-0.0592422 -0.0647047  0
-0.0284568 -0.0803497  0
0.00982568 -0.0820513  0
0.0464532 -0.0669975  0
0.0770221 -0.0441875  0
0.100588 -0.0148369  0
0.116431 0.0142847  0
0.125163 0.0409614  0
0.126676 0.0649061  0
0.11801 0.0928948  0
0.099181 0.118087  0
0.0811058 0.143338  0
-0.00271707 0.246005  0
-0.0796999 0.0755668  0
-0.0410657 0.0925755  0
-0.084295 -0.0407325  0
-0.127181 -0.0345545  0
-0.106385 -0.0609074  0
-0.08499 -0.0546831  0
-0.0406992 -0.0726347  0
-0.0179922 -0.0785146  0
0 0  0
0 0  0
0 0  0
0 0  0
0 0  0
0.0388388 0.0397132  0
0.128763 0.0397132  0
0.0297246 -0.0113719  0
-0.0746124 0.143571  0
-0.0288261 0.133256  0
-0.0818485 0.25776  0
-0.15898 0.201791  0
-0.185198 0.133371  0
-0.197797 0.108736  0
-0.205165 0.0524647  0
-0.189628 0.00107675  0
-0.159779 -0.0391355  0
-0.123082 -0.0678821  0
-0.0815967 -0.0925857  0
-0.0545031 -0.0815025  0
-0.0248681 -0.122981  0
0.0266504 -0.128297  0
0.0714662 -0.101248  0
0.109068 -0.0771302  0
0.143625 -0.0390585  0
0.171403 -0.00412296  0
0.191624 0.0314119  0
0.194322 0.0712552  0
0.170405 0.120118  0
0.0926131 0.188231  0
0.0339734 0.150407  0
0.100847 0.236698  0
0.0440106 0.0377834  0
-0.0398499 0.0377834  0
0 0  0
0 0  0
0 0  0
0 0  0
0 0  0
0 0  0
0 0  0
0 0  0
0 0  0
0 0  0
0 0  0
0 0  0
0 0  0
0 0  0
-0.0144131 0.066628  0
-0.117589 0.066628  0
-0.142345 0.268459  0
-0.0783374 0.226136  0
-0.0959566 0.153352  0
-0.155527 0.161454  0
-0.18772 0.0400653  0
-0.161229 -0.0275442  0
-0.124291 -0.0762895  0
-0.0818781 -0.108877  0
-0.024664 -0.149325  0
-0.025408 -0.0503408  0
-0.0280396 -0.180368  0
0.0369803 -0.186443  0
0.0690586 -0.119194  0
0.0943827 -0.121296  0
0.138702 -0.0727388  0
0.179173 -0.0376753  0
0.219633 0.00527802  0
0.206794 0.108281  0
0.174797 0.139497  0
0.152617 0.193184  0
0.0822053 0.0752036  0
0.0169867 0.0752036  0
0 0  0
0 0  0
0 0  0
0 0  0
0 0  0
0 0  0
0 0  0
0 0  0
0 0  0
0 0  0
0 0  0
0 0  0
0 0  0
0 0  0
0 0  0
0 0  0
0 0  0
0 0  0
-0.0391687 0.113068  0
-0.0507553 0.113068  0
-0.0845909 0.0854857  0
-0.0938674 0.116986  0
-0.0417261 0.0305676  0
-0.0359021 -0.0498585  0
-0.0250999 -0.101217  0
-0.0136948 -0.137292  0
-0.00726813 -0.184041  0
0.00289454 -0.113911  0
0.0130572 -0.213231  0
0.0130572 -0.218032  0
0.0353136 -0.13276  0
0.05757 -0.146151  0
0.0670467 -0.101115  0
0.0837375 -0.0659304  0
0.0909517 -0.013637  0
0.133265 0.063321  0
0.175188 0.0697484  0
0.0873983 0.0697484  0
0 0  0
0 0  0
0 0  0
0 0  0
0 0  0
0 0  0
0 0  0
0 0  0
0 0  0
0 0  0
0 0  0
0 0  0
0 0  0
0 0  0
0 0  0
0 0  0
0 0  0
0 0  0
0 0  0
0 0  0
0 0  0
0 0  0
0 0  0
-0.020863 0.0152838  0
0.00139894 0.0152838  0
0.0324795 -0.0278412  0
0.0189184 -0.0530978  0
0.0252279 -0.0718595  0
0.012893 -0.0920206  0
0.00289454 -0.106615  0
0.0154578 -0.106615  0
0.0154578 -0.109016  0
0.0353136 -0.0730753  0
0.0397904 -0.0730753  0
0.0305436 -0.0552957  0
0.0352603 -0.0365723  0
0.061198 -0.00681851  0
0.0454759 -0.00681851  0
0 0  0
0 0  0
0 0  0
0 0  0
0 0  0
0 0  0
0 0  0
0 0  0
0 0  0
0 0  0
0 0  0
0 0  0
0 0  0
0 0  0
0 0  0
0 0  0
0 0  0
0 0  0
0 0  0
0 0  0
0 0  0
0 0  0
0 0  0
0 0  0
0 0  0
0 0  0
0 0  0
0 0  0
0 0  0
0 0  0
0 0  0
0 0  0
0 0  0
0 0  0
0 0  0
0 0  0
0 0  0
0 0  0
0 0  0
0 0  0
0 0  0
0 0  0
0 0  0
0 0  0
0 0  0
0 0  0
0 0  0
0 0  0
0 0  0
0 0  0
0 0  0
0 0  0
0 0  0
0 0  0
0 0  0
0 0  0
0 0  0
0 0  0
0 0  0
0 0  0
0 0  0
0 0  0
0 0  0
0 0  0
0 0  0
0 0  0
0 0  0
0 0  0
0 0  0
0 0  0
0 0  0
0 0  0
0 0  0
0 0  0
0 0  0
0 0  0
0 0  0
0 0  0
0 0  0
0 0  0
0 0  0
0 0  0
0 0  0
0 0  0
0 0  0
0 0  0
0 0  0
0 0  0
0 0  0
0 0  0
0 0  0
0 0  0
0 0  0
0 0  0
0 0  0
0 0  0
0 0  0
0 0  0
0 0  0
0 0  0
0 0  0
0 0  0
0 0  0
0 0  0
0 0  0
0 0  0
0 0  0
0 0  0
0 0  0
0 0  0
0 0  0
0 0  0
0 0  0
0 0  0
0 0  0
0 0  0
0 0  0
0 0  0
0 0  0
0 0  0
0 0  0
0 0  0
0 0  0
0 0  0
0 0  0
0 0  0
0 0  0
0 0  0
0 0  0
0 0  0
0 0  0
0 0  0
0 0  0
0 0  0
0 0  0
0 0  0
0 0  0
0 0  0
0 0  0
0 0  0
0 0  0
0 0  0
0 0  0
0 0  0
0 0  0
0 0  0
0 0  0
0 0  0
0 0  0
0 0  0
0 0  0
0 0  0
0 0  0
0 0  0
0 0  0
0 0  0
0 0  0
0 0  0
0 0  0
0 0  0
0 0  0
0 0  0
0 0  0
0 0  0
0 0  0
0 0  0
0 0  0
0 0  0
0 0  0
0 0  0
0 0  0
0 0  0
0 0  0
0 0  0
0 0  0
0 0  0
0 0  0
0 0  0
0 0  0
0 0  0
0 0  0
0 0  0
0 0  0
0 0  0
0 0  0
0 0  0
0 0  0
0 0  0
0 0  0
0 0  0
0 0  0
0 0  0
0 0  0
0 0  0
0 0  0
0 0  0
0 0  0
0 0  0
0 0  0
0 0  0
0 0  0
0 0  0
0 0  0
0 0  0
0 0  0
0 0  0
0 0  0
0 0  0
0 0  0
0 0  0
0 0  0
0 0  0
0 0  0
0 0  0
0 0  0
0 0  0
0 0  0
0 0  0
0 0  0
0 0  0
0 0  0
0 0  0
0 0  0
0 0  0
0 0  0
0 0  0
0 0  0
0 0  0
0 0  0
0 0  0
0 0  0
0 0  0
0 0  0
0 0  0
0 0  0
0 0  0
0 0  0
0 0  0
0 0  0
0 0  0
0 0  0
0 0  0
0 0  0
0 0  0
0 0  0
0 0  0
0 0  0
0 0  0
0 0  0
0 0  0
0 0  0
0 0  0
0 0  0
0 0  0
0 0  0
0 0  0
0 0  0
0 0  0
0 0  0
0 0  0
0 0  0
0 0  0
0 0  0
0 0  0
0 0  0
0 0  0
0 0  0
0 0  0
0 0  0
0 0  0
0 0  0
0 0  0
0 0  0
0 0  0
0 0  0
0 0  0
0 0  0
0 0  0
0 0  0
0 0  0
0 0  0
0 0  0
0 0  0
0 0  0
0 0  0
0 0  0
0 0  0
0 0  0
0 0  0
0 0  0
0 0  0
0 0  0
0 0  0
0 0  0
0 0  0
0 0  0
0 0  0
0 0  0
0 0  0
0 0  0
0 0  0
0 0  0
0 0  0
0 0  0
0 0  0
0 0  0
0 0  0
0 0  0
0 0  0
0 0  0
0 0  0
0 0  0
0 0  0
0 0  0
0 0  0
0 0  0
0 0  0
0 0  0
0 0  0
0 0  0
0 0  0
0 0  0
0 0  0
0 0  0
0 0  0
0 0  0
0 0  0
0 0  0
0 0  0
0 0  0
0 0  0
0 0  0
0 0  0
0 0  0
0 0  0
0 0  0
0 0  0
0 0  0
0 0  0
0 0  0
0 0  0
0 0  0
0 0  0
0 0  0
0 0  0
0 0  0
0 0  0
0 0  0
0 0  0
0 0  0
0 0  0
0 0  0
0 0  0
0 0  0
0 0  0
0 0  0
0 0  0
0 0  0
0 0  0
0 0  0
0 0  0
0 0  0
0 0  0
0 0  0
0 0  0
0 0  0
0 0  0
0 0  0
0 0  0
0 0  0
0 0  0
0 0  0
0 0  0
0 0  0
0 0  0
0 0  0
0 0  0
0 0  0
0 0  0
0 0  0
0 0  0
0 0  0
0 0  0
0 0  0
0 0  0
0 0  0
0 0  0
0 0  0
0 0  0
0 0  0
0 0  0
0 0  0
0 0  0
0 0  0
0 0  0
0 0  0
0 0  0
0 0  0
0 0  0
0 0  0
0 0  0
0 0  0
0 0  0
0 0  0
0 0  0
0 0  0
0 0  0
0 0  0
0 0  0
0 0  0
0 0  0
0 0  0
0 0  0
0 0  0
0 0  0
0 0  0
0 0  0
0 0  0
0 0  0
0 0  0
0 0  0
0 0  0
0 0  0
0 0  0
0 0  0
0 0  0
0 0  0
0 0  0
0 0  0
0 0  0
0 0  0
0 0  0
0 0  0
0 0  0
0 0  0
0 0  0
0 0  0
0 0  0
0 0  0
0 0  0
0 0  0
0 0  0
0 0  0
0 0  0
0 0  0
0 0  0
0 0  0
0 0  0
0 0  0
0 0  0
0 0  0
0 0  0
0 0  0
0 0  0
0 0  0
0 0  0
0 0  0
0 0  0
0 0  0
0 0  0
0 0  0
0 0  0
0 0  0
0 0  0
0 0  0
0 0  0
0 0  0
0 0  0
0 0  0
0 0  0
0 0  0
0 0  0
0 0  0
0 0  0
0 0  0
0 0  0
0 0  0
0 0  0
0 0  0
0 0  0
0 0  0
0 0  0
0 0  0
0 0  0
0 0  0
0 0  0
0 0  0
0 0  0
0 0  0
0 0  0
0 0  0
0 0  0

SCALARS pressure double 1
LOOKUP_TABLE default
3.28969
3.29517
3.30567
3.32086
3.34024
3.36318
3.389
3.4169
3.44612
3.47473
3.50438
3.53239
3.55866
3.58313
3.60488
3.6236
3.63911
3.6512
3.65972
3.66464
3.66596
3.66373
3.65806
3.64911
3.63712
3.62232
3.60505
3.58572
3.56479
3.54278
3.52023
3.49773
3.47594
3.45545
3.43682
3.42057
3.40711
3.39678
3.3898
3.3863
3.07611
3.08172
3.09256
3.10827
3.12828
3.15195
3.17851
3.20722
3.236
3.26711
3.29608
3.32494
3.35209
3.37664
3.39874
3.4178
3.43347
3.44567
3.45429
3.45922
3.46049
3.4582
3.45242
3.4433
3.43106
3.41599
3.39839
3.37866
3.35722
3.33459
3.31142
3.28835
3.266
3.24498
3.22586
3.20919
3.19541
3.18486
3.17775
3.17418
2.84845
2.85443
2.86602
2.88276
2.90408
2.92922
2.95738
2.98656
3.01867
3.04943
3.08087
3.1106
3.13856
3.16425
3.18693
3.20651
3.22265
3.23508
3.2438
3.24875
3.24996
3.24746
3.24141
3.23195
3.21927
3.20359
3.18524
3.16455
3.14203
3.11832
3.09398
3.06966
3.04606
3.02389
3.00378
2.98629
2.97189
2.96089
2.9535
2.9498
2.60632
2.61288
2.62562
2.64407
2.66747
2.69493
2.72463
2.7576
2.79064
2.82477
2.85754
2.88932
2.91892
2.9458
2.96967
2.99005
3.00668
3.01951
3.02838
3.03333
3.03439
3.03165
3.02522
3.01525
3.0019
2.98539
2.96595
2.94405
2.92014
2.89469
2.86841
2.84209
2.81653
2.79254
2.77083
2.75203
2.73662
2.7249
2.71705
2.71312
2.34899
2.35641
2.37092
2.39181
2.41814
2.44826
2.48208
2.51785
2.55456
2.59135
2.62724
2.66131
2.6931
2.72184
2.74707
2.76846
2.7859
2.79912
2.80819
2.81311
2.81397
2.81096
2.80429
2.79402
2.7802
2.76285
2.74218
2.71845
2.69216
2.66405
2.63491
2.60568
2.57728
2.55066
2.52668
2.50606
2.48928
2.47664
2.46821
2.46401
2.07549
2.08418
2.10108
2.12532
2.15538
2.1901
2.22858
2.2684
2.30963
2.35021
2.38974
2.42706
2.46153
2.49252
2.51946
2.54224
2.56047
2.57418
2.5834
2.58825
2.58935
2.58693
2.58065
2.57019
2.55533
2.53622
2.51312
2.48649
2.45687
2.42506
2.39202
2.35878
2.32654
2.2965
2.26973
2.247
2.22878
2.21525
2.20635
2.20199
1.78452
1.79483
1.81497
1.84376
1.8792
1.92015
1.96385
2.00976
2.05594
2.10169
2.14552
2.18688
2.22461
2.25832
2.2875
2.3116
2.33079
2.34499
2.35432
2.36069
2.36333
2.36108
2.35381
2.34168
2.32484
2.30335
2.27744
2.24747
2.21415
2.17819
2.14057
2.10255
2.06555
2.03116
2.0008
1.97543
1.95547
1.94093
1.93155
1.92696
1.47424
1.4866
1.51112
1.54635
1.58953
1.63767
1.68881
1.74162
1.79425
1.84588
1.89528
1.94117
1.98306
2.01998
2.05136
2.07724
2.09735
2.11196
2.12504
2.1321
2.13319
2.12955
2.12117
2.10779
2.08937
2.06597
2.03753
2.00422
1.96638
1.92488
1.88097
1.83627
1.79277
1.75268
1.71801
1.68984
1.66831
1.65304
1.64341
1.63873
1.14245
1.15711
1.18732
1.2325
1.28584
1.34321
1.40365
1.46451
1.52491
1.58355
1.63928
1.69098
1.73747
1.77799
1.81213
1.83968
1.86082
1.88143
1.89141
1.89686
1.89801
1.89385
1.88479
1.8708
1.85136
1.82581
1.79405
1.75629
1.71301
1.66494
1.61336
1.56012
1.50794
1.46013
1.42012
1.38908
1.36642
1.35098
1.34154
1.33702
0.786883
0.803059
0.839821
0.90194
0.968886
1.03754
1.10887
1.17949
1.24839
1.31523
1.3786
1.43696
1.48881
1.53339
1.57054
1.59997
1.62819
1.64177
1.65389
1.65913
1.65892
1.65461
1.64527
1.63058
1.60992
1.58261
1.54789
1.50547
1.45572
1.39948
1.33809
1.27354
1.20929
1.15064
1.10448
1.07139
1.04877
1.03411
1.02554
1.02143
0.40631
0.419921
0.45994
0.55803
0.642275
0.720868
0.806284
0.887814
0.965197
1.04163
1.11412
1.18024
1.23816
1.28741
1.32764
1.36394
1.38536
1.40419
1.41266
1.41658
1.41612
1.41101
1.40196
1.38798
1.36724
1.33838
1.30038
1.25292
1.19598
1.13024
1.0568
0.977159
0.895476
0.818861
0.766358
0.734081
0.713944
0.701706
0.694958
0.691518
0.0036511
0.00308028
0.0105563
0.215931
0.3136
0.38998
0.500089
0.591689
0.674826
0.763456
0.846976
0.922364
0.987053
1.04092
1.08732
1.12155
1.14658
1.16117
1.16837
1.16975
1.16832
1.16365
1.1551
1.14252
1.12333
1.09421
1.05355
1.00057
0.935673
0.858992
0.771777
0.672516
0.566421
0.453355
0.398862
0.375108
0.361347
0.353706
0.349632
0.346952
0
0
0
-0.0285125
-0.00464386
0.0152905
0.202092
0.294399
0.371822
0.482624
0.578807
0.665612
0.736722
0.795658
0.845358
0.880897
0.90577
0.917162
0.919841
0.917076
0.914748
0.9102
0.902728
0.894786
0.879592
0.852041
0.809317
0.750735
0.677186
0.587742
0.487402
0.362747
0.235284
0.0174526
-0.0109922
-0.0027895
-0.00746229
-0.00756109
-0.00840801
-0.0120614
0
0
0
0
0
0
-0.00565813
0.00492512
0.0232841
0.208788
0.31044
0.413665
0.488672
0.549636
0.603008
0.642612
0.665303
0.672603
0.666228
0.653831
0.653863
0.649548
0.640214
0.642863
0.637341
0.614344
0.570354
0.505221
0.42363
0.316161
0.211133
0.0379466
-0.0169081
0
0
0
0
0
0
0
0
0
0
0
0
0
0
0
0
0.00748348
0.0253697
0.177062
0.244722
0.297509
0.364054
0.408452
0.42927
0.429962
0.408755
0.369455
0.386344
0.382818
0.35516
0.387399
0.400194
0.385629
0.340882
0.264595
0.18392
0.0284513
-0.00985478
0
0
0
0
0
0
0
0
0
0
0
0
0
0
0
0
0
0
0
0
0.0169882
0.00848456
0.0203701
0.138784
0.186918
0.204438
0.19907
0.158508
0.0154268
0.126627
0.12921
-0.00328946
0.140718
0.179709
0.174942
0.131103
0.0153743
0.00562755
0
0
0
0
0
0
0
0
0
0
0
0
0
0
0
0
0
0
0
0
0
0
0
0
0
-0.0131539
-0.00277627
-0.0024369
-0.00318342
-0.00312005
0
-0.0316242
-0.0028235
0
-0.0116753
-0.00467532
-0.00351119
-0.0091132
0
0
0
0
0
0
0
0
0
0
0
0
0
0
0
0
0
0
0
0
0
0
0
0
0
0
0
0
0
0
0
0
0
0
0
0
0
0
0
0
0
0
0
0
0
0
0
0
0
0
0
0
0
0
0
0
0
0
0
0
0
0
0
0
0
0
0
0
0
0
0
0
0
0
0
0
0
0
0
0
0
0
0
0
0
0
0
0
0
0
0
0
0
0
0
0
0
0
0
0
0
0
0
0
0
0
0
0
0
0
0
0
0
0
0
0
0
0
0
0
0
0
0
0
0
0
0
0
0
0
0
0
0
0
0
0
0
0
0
0
0
0
0
0
0
0
0
0
0
0
0
0
0
0
0
0
0
0
0
0
0
0
0
0
0
0
0
0
0
0
0
0
0
0
0
0
0
0
0
0
0
0
0
0
0
0
0
0
0
0
0
0
0
0
0
0
0
0
0
0
0
0
0
0
0
0
0
0
0
0
0
0
0
0
0
0
0
0
0
0
0
0
0
0
0
0
0
0
0
0
0
0
0
0
0
0
0
0
0
0
0
0
0
0
0
0
0
0
0
0
0
0
0
0
0
0
0
0
0
0
0
0
0
0
0
0
0
0
0
0
0
0
0
0
0
0
0
0
0
0
0
0
0
0
0
0
0
0
0
0
0
0
0
0
0
0
0
0
0
0
0
0
0
0
0
0
0
0
0
0
0
0
0
0
0
0
0
0
0
0
0
0
0
0
0
0
0
0
0
0
0
0
0
0
0
0
0
0
0
0
0
0
0
0
0
0
0
0
0
0
0
0
0
0
0
0
0
0
0
0
0
0
0
0
0
0
0
0
0
0
0
0
0
0
0
0
0
0
0
0
0
0
0
0
0
0
0
0
0
0
0
0
0
0
0
0
0
0
0
0
0
0
0
0
0
0
0
0
0
0
0
0
0
0
0
0
0
0
0
0
0
0
0
0
0
0
0
0
0
0
0
0
0
0
0
0
0
0
0
0
0
0
0
0
0
0
0
0
0
0
0
0
0
0
0
0
0
0
0
0
0
0
0
0
0
0
0
0
0
0
0
0
0
0
0
0
0
0
0
0
0
0
0
0
0
0
0
0
0
0
0
0
0
0
0
0
0
0
0
0
0
0
0
0
0
0
0
0
0
0
0
0
0
0
0
0
0
0
0
0
0
0
0
0
0
0
0
0
0
0
0
0
0
SCALARS rhs double 1
LOOKUP_TABLE default
-5.33355
-5.28155
-5.28059
-5.28047
-5.28096
-5.28174
-5.28299
-5.28316
-5.28382
-5.25091
-5.2867
-5.26998
-5.26353
-5.27212
-5.26936
-5.26638
-5.26659
-5.26707
-5.26646
-5.26705
-5.26785
-5.26824
-5.26882
-5.26972
-5.27094
-5.27178
-5.27248
-5.27338
-5.27446
-5.27518
-5.27498
-5.27425
-5.27417
-5.27419
-5.27425
-5.27391
-5.27377
-5.27389
-5.27455
-5.27564
-0.279039
-0.22861
-0.228685
-0.228883
-0.228409
-0.228468
-0.227612
-0.22872
-0.1937
-0.261322
-0.201931
-0.227743
-0.233634
-0.219725
-0.225131
-0.226815
-0.224753
-0.2251
-0.226367
-0.225937
-0.225741
-0.226546
-0.226808
-0.226542
-0.226211
-0.226683
-0.227295
-0.227454
-0.226022
-0.2243
-0.224371
-0.22559
-0.226422
-0.226442
-0.22572
-0.225218
-0.224838
-0.225379
-0.226285
-0.227256
-0.275473
-0.228071
-0.227383
-0.22646
-0.226905
-0.22656
-0.227435
-0.19464
-0.259933
-0.19435
-0.239852
-0.222585
-0.220422
-0.22808
-0.222666
-0.224273
-0.22642
-0.224557
-0.224428
-0.225016
-0.225122
-0.224352
-0.224843
-0.225613
-0.226085
-0.225836
-0.225167
-0.222777
-0.2223
-0.224571
-0.225451
-0.225048
-0.224278
-0.224189
-0.223834
-0.223148
-0.222735
-0.222908
-0.223793
-0.224973
-0.272257
-0.226522
-0.225452
-0.226399
-0.225985
-0.225757
-0.199798
-0.248916
-0.201164
-0.241798
-0.212892
-0.226174
-0.225642
-0.221506
-0.226164
-0.224899
-0.22234
-0.224342
-0.223567
-0.22355
-0.223754
-0.224808
-0.22475
-0.224703
-0.22396
-0.223022
-0.220858
-0.222736
-0.225026
-0.223527
-0.222907
-0.223174
-0.223227
-0.222604
-0.221985
-0.220898
-0.22035
-0.220653
-0.221587
-0.222709
-0.267529
-0.225586
-0.226226
-0.225279
-0.224177
-0.207502
-0.23368
-0.217249
-0.226711
-0.219258
-0.226364
-0.220694
-0.22456
-0.224756
-0.222731
-0.221744
-0.224402
-0.222309
-0.22314
-0.223088
-0.223508
-0.223525
-0.223414
-0.221702
-0.221234
-0.220607
-0.223375
-0.222729
-0.220834
-0.222096
-0.222591
-0.222268
-0.221875
-0.221016
-0.219704
-0.218436
-0.21757
-0.21778
-0.21898
-0.22029
-0.262708
-0.226558
-0.225059
-0.223681
-0.214734
-0.221292
-0.229817
-0.212673
-0.229326
-0.219019
-0.223454
-0.223176
-0.22279
-0.223336
-0.221183
-0.224511
-0.221338
-0.221998
-0.222209
-0.222877
-0.22267
-0.221203
-0.219484
-0.220984
-0.220915
-0.221665
-0.21989
-0.220603
-0.221484
-0.221188
-0.22137
-0.221643
-0.221056
-0.219543
-0.217289
-0.215029
-0.213755
-0.215087
-0.216718
-0.21822
-0.258465
-0.225944
-0.224027
-0.219534
-0.21552
-0.232334
-0.211057
-0.228521
-0.216405
-0.226082
-0.219813
-0.224891
-0.22049
-0.222463
-0.225876
-0.218706
-0.222019
-0.222925
-0.221597
-0.221132
-0.219671
-0.21941
-0.220748
-0.21934
-0.219014
-0.219279
-0.220312
-0.219494
-0.219883
-0.220457
-0.221678
-0.221745
-0.220919
-0.218619
-0.215203
-0.211883
-0.21041
-0.211552
-0.214938
-0.217047
-0.251988
-0.224204
-0.221084
-0.215031
-0.22634
-0.217175
-0.218228
-0.222027
-0.219647
-0.221167
-0.22471
-0.217356
-0.225435
-0.224962
-0.21795
-0.224766
-0.221312
-0.219751
-0.221359
-0.219146
-0.219286
-0.219128
-0.217825
-0.217734
-0.218545
-0.218097
-0.218274
-0.219509
-0.219863
-0.220663
-0.221667
-0.223675
-0.22272
-0.219455
-0.214495
-0.210001
-0.208566
-0.21046
-0.21603
-0.218204
-0.241187
-0.217188
-0.211762
-0.217174
-0.218603
-0.209002
-0.222164
-0.211978
-0.221233
-0.219323
-0.218858
-0.225286
-0.223554
-0.222108
-0.225742
-0.220245
-0.221831
-0.221424
-0.218754
-0.219737
-0.218008
-0.217374
-0.216846
-0.216853
-0.216765
-0.217658
-0.217891
-0.218772
-0.22045
-0.222298
-0.22378
-0.225959
-0.227989
-0.224091
-0.217444
-0.21208
-0.21156
-0.216316
-0.225878
-0.230423
-0.224985
-0.20557
-0.203158
-0.221131
-0.202337
-0.208987
-0.207589
-0.210668
-0.213113
-0.216122
-0.220754
-0.22469
-0.225863
-0.226597
-0.225096
-0.225621
-0.22301
-0.221334
-0.221508
-0.218265
-0.217886
-0.216772
-0.216678
-0.217223
-0.217024
-0.217554
-0.218636
-0.21973
-0.221921
-0.225396
-0.229982
-0.23225
-0.234694
-0.235741
-0.226671
-0.221348
-0.223765
-0.229922
-0.247387
-0.248655
-0.21057
-0.205742