# vtk DataFile Version 4.0
Nusif Fluid VTK output
ASCII
DATASET STRUCTURED_POINTS
DIMENSIONS 40 30 1
ORIGIN 0 0 0 
SPACING 0.2 0.2 1
POINT_DATA 1200 

VECTORS velocity double
-0.00452546 0.0049175  0
-0.013535 0.00488599  0
-0.0224311 0.00481625  0
-0.0311359 0.00469953  0
-0.0395434 0.00452301  0
-0.0475185 0.00426978  0
-0.0548897 0.00392094  0
-0.0614443 0.00345555  0
-0.0669267 0.00285267  0
-0.0710422 0.00209401  0
-0.0734665 0.00116796  0
-0.0738647 7.33868e-05  0
-0.0719176 -0.00117449  0
-0.0673572 -0.00253998  0
-0.0600074 -0.00396496  0
-0.0498261 -0.00537125  0
-0.0369409 -0.00666688  0
-0.0216685 -0.00775571  0
-0.0045108 -0.00855043  0
0.0138727 -0.00898093  0
0.0327185 -0.00901238  0
0.0512269 -0.00864369  0
0.0686336 -0.00791181  0
0.0842796 -0.00688556  0
0.0976646 -0.00565537  0
0.108479 -0.00431875  0
0.116608 -0.00297044  0
0.122113 -0.00169294  0
0.125197 -0.000548628  0
0.126163 0.000422935  0
0.125375 0.00120209  0
0.123222 0.00178552  0
0.120093 0.00217807  0
0.116359 0.00239067  0
0.112345 0.00245769  0
0.108172 0.00254747  0
0.103069 0.00338541  0
0.0934235 0.00709029  0
0.070743 0.0164205  0
0.0273689 0.027784  0
-0.0045568 0.0147944  0
-0.0136359 0.0147021  0
-0.0226168 0.0144996  0
-0.031428 0.0141603  0
-0.0399717 0.0136448  0
-0.0481187 0.0129043  0
-0.0557019 0.0118796  0
-0.0625102 0.0105047  0
-0.0682858 0.00871336  0
-0.0727244 0.00644735  0
-0.0754847 0.00366631  0
-0.0762048 0.000363007  0
-0.0745289 -0.00341857  0
-0.0701457 -0.00757193  0
-0.0628368 -0.0119226  0
-0.0525264 -0.0162325  0
-0.0393242 -0.0202167  0
-0.0235506 -0.0235738  0
-0.00573603 -0.0260261  0
0.0134093 -0.0273549  0
0.0330546 -0.0274504  0
0.052326 -0.0263086  0
0.07039 -0.0240449  0
0.0865336 -0.0208751  0
0.100228 -0.0170807  0
0.11116 -0.0129721  0
0.119229 -0.0088471  0
0.12453 -0.00495606  0
0.127307 -0.00148422  0
0.127909 0.0014514  0
0.126733 0.003797  0
0.124192 0.00554368  0
0.120686 0.00671298  0
0.116582 0.00734876  0
0.112182 0.00756735  0
0.107561 0.00788573  0
0.101889 0.0104742  0
0.0916073 0.0215817  0
0.0687117 0.0491578  0
0.026403 0.0823822  0
-0.00461764 0.0247779  0
-0.0138297 0.0246358  0
-0.0229724 0.0243243  0
-0.0319896 0.0237979  0
-0.0407977 0.0229939  0
-0.0492817 0.0218264  0
-0.0572872 0.0201912  0
-0.0646083 0.0179731  0
-0.0709817 0.0150514  0
-0.076087 0.0113133  0
-0.0795485 0.00667714  0
-0.0809471 0.00111919  0
-0.0798503 -0.00530059  0
-0.0758593 -0.0124134  0
-0.0686662 -0.0199271  0
-0.0581186 -0.027427  0
-0.0442808 -0.034404  0
-0.0274753 -0.040309  0
-0.00829208 -0.0446323  0
0.0124457 -0.0469766  0
0.0337637 -0.0471399  0
0.0546309 -0.04511  0
0.0740648 -0.0410979  0
0.0912404 -0.0354957  0
0.105563 -0.0288243  0
0.116707 -0.021649  0
0.124618 -0.0144987  0
0.12947 -0.0078089  0
0.131599 -0.00189288  0
0.131438 0.00306509  0
0.129461 0.00698605  0
0.12613 0.00987565  0
0.121871 0.011792  0
0.117056 0.0128336  0
0.111961 0.0132225  0
0.106613 0.0138464  0
0.100162 0.0182843  0
0.0892103 0.0366528  0
0.0663282 0.0815122  0
0.0253517 0.134961  0
-0.0046989 0.0349114  0
-0.0140899 0.0347411  0
-0.0234553 0.0343633  0
-0.0327584 0.0337184  0
-0.041943 0.0327118  0
-0.0509214 0.0312199  0
-0.0595553 0.0290919  0
-0.0676501 0.026151  0
-0.0749456 0.0222055  0
-0.0810987 0.0170729  0
-0.0856785 0.0106084  0
-0.0881817 0.0027411  0
-0.0880607 -0.00648312  0
-0.0847719 -0.0168491  0
-0.0778501 -0.0279431  0
-0.0670031 -0.0391444  0
-0.0522058 -0.0496617  0
-0.0337772 -0.0586249  0
-0.012405 -0.065213  0
0.0108997 -0.0687827  0
0.0349221 -0.0690218  0
0.0583676 -0.0658912  0
0.080003 -0.0597311  0
0.0988056 -0.0511791  0
0.114073 -0.0410709  0
0.125484 -0.030301  0
0.133069 -0.0196885  0
0.137135 -0.00988588  0
0.138181 -0.0013355  0
0.136787 0.00571927  0
0.133542 0.0112088  0
0.128993 0.0151852  0
0.12361 0.017775  0
0.117771 0.0191566  0
0.111739 0.0196794  0
0.105521 0.0206095  0
0.0982832 0.0268639  0
0.0868192 0.0521422  0
0.0641488 0.113229  0
0.0244418 0.185582  0
-0.00478789 0.045223  0
-0.0143783 0.0450546  0
-0.0239959 0.044676  0
-0.0336412 0.0440039  0
-0.0432963 0.0429179  0
-0.0529016 0.0412561  0
-0.0623558 0.0388105  0
-0.0714945 0.035331  0
-0.0800598 0.0305429  0
-0.087684 0.024166  0
-0.093881 0.0159488  0
-0.0980388 0.00572399  0
-0.0994398 -0.0065203  0
-0.0973189 -0.020556  0
-0.0909611 -0.0358518  0
-0.0798369 -0.0515427  0
-0.0637611 -0.0664708  0
-0.0430268 -0.079314  0
-0.0184589 -0.0888001  0
0.00863589 -0.0939334  0
0.0366635 -0.0942593  0
0.0639218 -0.0896883  0
0.088776 -0.0807497  0
0.1099 -0.0684154  0
0.126441 -0.0539745  0
0.13809 -0.038788  0
0.145034 -0.0240609  0
0.147823 -0.0106999  0
0.147204 0.000722074  0
0.143983 0.00994343  0
0.138927 0.0169492  0
0.13269 0.0218911  0
0.125798 0.0250064  0
0.118642 0.0265818  0
0.111481 0.0271073  0
0.104324 0.0282179  0
0.0963816 0.0360963  0
0.0846001 0.067816  0
0.062276 0.14421  0
0.0236951 0.234548  0
-0.0048673 0.0557096  0
-0.0146374 0.0555861  0
-0.0245066 0.0552842  0
-0.0345167 0.0547059  0
-0.0446907 0.0537061  0
-0.0550286 0.0520804  0
-0.0654803 0.0495596  0
-0.0759179 0.0458173  0
-0.0861108 0.0404725  0
-0.095693 0.0331054  0
-0.104121 0.0233012  0
-0.11065 0.0107259  0
-0.114338 -0.00476526  0
-0.114102 -0.0230009  0
-0.108836 -0.0433603  0
-0.0976215 -0.0646987  0
-0.079977 -0.0853578  0
-0.05611 -0.103346  0
-0.0270553 -0.116706  0
0.00543969 -0.123928  0
0.0391979 -0.124353  0
0.0718824 -0.117836  0
0.101278 -0.105151  0
0.125583 -0.0877418  0
0.143703 -0.0676058  0
0.1554 -0.0468008  0
0.161157 -0.0270501  0
0.161918 -0.00956133  0
0.158823 0.00499218  0
0.153013 0.0163929  0
0.145488 0.0247641  0
0.137044 0.0304366  0
0.128248 0.0338247  0
0.119487 0.0353524  0
0.111017 0.0356354  0
0.102884 0.0366454  0
0.0943704 0.0457877  0
0.0825085 0.0834294  0
0.0606663 0.174423  0
0.0230846 0.282157  0
-0.00491099 0.0663314  0
-0.0148038 0.0663002  0
-0.0248768 0.0661718  0
-0.0352196 0.0658372  0
-0.0459218 0.0651262  0
-0.0570483 0.0637973  0
-0.0686192 0.0615302  0
-0.0805817 0.0579118  0
-0.0927717 0.0524296  0
-0.104855 0.0444839  0
-0.116259 0.0334243  0
-0.126101 0.0186431  0
-0.133161 -0.000264947  0
-0.13591 -0.0233161  0
-0.132658 -0.0498812  0
-0.121835 -0.0785191  0
-0.10241 -0.106893  0
-0.0743846 -0.131979  0
-0.0391024 -0.150678  0
0.000988176 -0.160804  0
0.0428205 -0.161328  0
0.0831413 -0.152127  0
0.118879 -0.134251  0
0.14745 -0.109775  0
0.167384 -0.0818889  0
0.178645 -0.0537417  0
0.182272 -0.0277633  0
0.179862 -0.00547724  0
0.173156 0.0124232  0
0.163756 0.0258788  0
0.152971 0.0352822  0
0.141746 0.0412733  0
0.130657 0.0445506  0
0.120011 0.0457064  0
0.110026 0.0454069  0
0.100835 0.0458639  0
0.0918756 0.0556989  0
0.0802278 0.0986802  0
0.0591006 0.203793  0
0.0225268 0.328595  0
-0.00489785 0.0769987  0
-0.0147972 0.0771157  0
-0.0249707 0.0772731  0
-0.0355627 0.0773466  0
-0.0467308 0.077159  0
-0.0586247 0.0764506  0
-0.0713658 0.0748538  0
-0.0850183 0.0718692  0
-0.0995384 0.0668479  0
-0.114697 0.058971  0
-0.12996 0.0472617  0
-0.144342 0.0306853  0
-0.156296 0.00837213  0
-0.163712 -0.0200995  0
-0.164038 -0.0543034  0
-0.154634 -0.0925737  0
-0.133438 -0.131699  0
-0.0999032 -0.166982  0
-0.0559236 -0.193195  0
-0.00520504 -0.207364  0
0.0479416 -0.20802  0
0.0990087 -0.195094  0
0.143661 -0.169946  0
0.177956 -0.135224  0
0.199741 -0.0964418  0
0.209528 -0.0585228  0
0.209423 -0.0247964  0
0.202105 0.00298308  0
0.190183 0.0242731  0
0.175879 0.0393943  0
0.160893 0.0491915  0
0.14632 0.0548124  0
0.132635 0.0574381  0
0.119865 0.0578861  0
0.108059 0.0566605  0
0.0975208 0.0559742  0
0.0880592 0.0656463  0
0.0769122 0.113172  0
0.0569536 0.232037  0
0.0217911 0.373738  0
-0.00479348 0.087559  0
-0.0145297 0.0878948  0
-0.0246469 0.0884519  0
-0.0353337 0.0891089  0
-0.0468174 0.089704  0
-0.0593529 0.0899862  0
-0.0732001 0.0895573  0
-0.0885869 0.0878534  0
-0.105668 0.0841021  0
-0.124438 0.0772735  0
-0.144543 0.0659612  0
-0.164992 0.0484744  0
-0.183935 0.0231769  0
-0.198567 -0.011113  0
-0.205124 -0.054634  0
-0.199221 -0.105789  0
-0.176768 -0.160412  0
-0.13581 -0.211075  0
-0.0794267 -0.247796  0
-0.013773 -0.267467  0
0.0551802 -0.268341  0
0.121345 -0.250327  0
0.178803 -0.215149  0
0.220946 -0.164789  0
0.244113 -0.110161  0
0.250319 -0.0591344  0
0.24379 -0.0159064  0
0.228948 0.0178722  0
0.209599 0.0422539  0
0.188715 0.0582023  0
0.168446 0.0672502  0
0.150066 0.0713224  0
0.133768 0.072526  0
0.118805 0.0721358  0
0.104686 0.0699413  0
0.0920094 0.0675296  0
0.0813892 0.0758091  0
0.0707368 0.126452  0
0.0527668 0.258329  0
0.0203339 0.416684  0
-0.00456137 0.0977854  0
-0.0139039 0.098444  0
-0.0237565 0.0995211  0
-0.0343094 0.100921  0
-0.0458516 0.102555  0
-0.0587692 0.104226  0
-0.0734956 0.105524  0
-0.0904691 0.105861  0
-0.110113 0.104429  0
-0.132834 0.100069  0
-0.158756 0.0908522  0
-0.187124 0.0741046  0
-0.215896 0.0470188  0
-0.241519 0.0070668  0
-0.258682 -0.0473788  0
-0.260233 -0.115746  0
-0.237929 -0.193599  0
-0.186217 -0.268949  0
-0.111477 -0.319414  0
-0.025221 -0.346106  0
0.065101 -0.347319  0
0.152069 -0.322825  0
0.228505 -0.27489  0
0.28209 -0.199128  0
0.305245 -0.120508  0
0.303857 -0.0519859  0
0.286536 0.00238253  0
0.260396 0.042137  0
0.230663 0.0686522  0
0.201068 0.0838875  0
0.174273 0.0902436  0
0.151949 0.0906469  0
0.133847 0.0892039  0
0.117194 0.0886781  0
0.0998845 0.0864528  0
0.0831294 0.0820895  0
0.0692083 0.0874314  0
0.058037 0.138286  0
0.0434769 0.280653  0
0.0170331 0.454867  0
-0.00413373 0.107344  0
-0.0127922 0.108566  0
-0.0221675 0.110258  0
-0.0322954 0.112493  0
-0.043508 0.115365  0
-0.0563785 0.118828  0
-0.0715585 0.122435  0
-0.0896786 0.125651  0
-0.111463 0.127701  0
-0.138027 0.127743  0
-0.170533 0.123306  0
-0.208876 0.110102  0
-0.251076 0.0837222  0
-0.293069 0.0396324  0
-0.32772 -0.02654  0
-0.343361 -0.117815  0
-0.323019 -0.232578  0
-0.253668 -0.349403  0
-0.151403 -0.414313  0
-0.0389975 -0.448217  0
0.0770918 -0.449973  0
0.190374 -0.418779  0
0.294641 -0.358006  0
0.366618 -0.23995  0
0.388367 -0.122986  0
0.373014 -0.031184  0
0.338317 0.035173  0
0.295751 0.0796514  0
0.251952 0.106298  0
0.211062 0.118358  0
0.176221 0.119031  0
0.150402 0.111614  0
0.133345 0.105008  0
0.116705 0.107798  0
0.0940658 0.10892  0
0.0688888 0.103186  0
0.0464366 0.10433  0
0.0312481 0.149367  0
0.0229037 0.2941  0
0.00983996 0.482553  0
-0.00334324 0.11567  0
-0.0110027 0.118216  0
-0.0198514 0.120449  0
-0.0292382 0.123435  0
-0.0395762 0.127591  0
-0.0517893 0.133291  0
-0.0668057 0.139772  0
-0.0854043 0.146663  0
-0.108335 0.153055  0
-0.13769 0.159976  0
-0.177017 0.164605  0
-0.227529 0.159343  0
-0.287426 0.138192  0
-0.352628 0.0939256  0
-0.413731 0.0164988  0
-0.450823 -0.106515  0
-0.429709 -0.283705  0
-0.330409 -0.465285  0
-0.191815 -0.537654  0
-0.0525535 -0.574914  0
0.0872815 -0.577574  0
0.226896 -0.542457  0
0.364824 -0.474912  0
0.466304 -0.294903  0
0.49193 -0.113824  0
0.457887 0.0106395  0
0.398507 0.0890354  0
0.333588 0.134905  0
0.271664 0.158398  0
0.216524 0.163906  0
0.171077 0.155381  0
0.142423 0.131343  0
0.133107 0.113269  0
0.119101 0.131807  0
0.0847008 0.143569  0
0.0429814 0.137048  0
0.0023357 0.135178  0
-0.0247082 0.16237  0
-0.020057 0.286413  0
-0.00416753 0.489036  0
-0.00186548 0.121713  0
-0.00870609 0.128313  0
-0.0179586 0.130065  0
-0.0265816 0.133441  0
-0.0356115 0.13856  0
-0.0467654 0.147292  0
-0.0614443 0.157088  0
-0.0805076 0.168641  0
-0.103544 0.17868  0
-0.133388 0.195208  0
-0.179194 0.216157  0
-0.244138 0.224845  0
-0.325563 0.215584  0
-0.419482 0.177247  0
-0.511126 0.0875351  0
-0.565261 -0.0847073  0
-0.525918 -0.364347  0
-0.387562 -0.62068  0
-0.219588 -0.687217  0
-0.0635058 -0.719081  0
0.0877832 -0.722922  0
0.240664 -0.688003  0
0.397255 -0.622285  0
0.53314 -0.383304  0
0.585855 -0.102168  0
0.546143 0.0743495  0
0.463619 0.168851  0
0.37369 0.211561  0
0.290686 0.228281  0
0.218591 0.222861  0
0.156012 0.206052  0
0.120469 0.146475  0
0.124627 0.104906  0
0.110944 0.169469  0
0.0550546 0.197803  0
-0.00735819 0.188552  0
-0.0755267 0.1941  0
-0.123212 0.179792  0
-0.0930595 0.235804  0
-0.0266818 0.458995  0
-0.00648626 0.130883  0
-0.024233 0.145351  0
-0.0410615 0.140714  0
-0.052398 0.144357  0
-0.0631939 0.149073  0
-0.0762976 0.162647  0
-0.0937431 0.175475  0
-0.117101 0.194294  0
-0.142844 0.20343  0
-0.171299 0.230382  0
-0.222584 0.279671  0
-0.300816 0.306091  0
-0.396482 0.31303  0
-0.502705 0.28155  0
-0.591642 0.165421  0
-0.618736 -0.0797574  0
-0.536001 -0.489768  0
-0.380294 -0.787719  0
-0.221681 -0.845164  0
-0.0724913 -0.864806  0
0.0687194 -0.868101  0
0.205622 -0.831011  0
0.336762 -0.765416  0
0.47954 -0.517241  0
0.585912 -0.125712  0
0.596108 0.129018  0
0.531181 0.263247  0
0.434897 0.304984  0
0.33616 0.318201  0
0.251098 0.291701  0
0.151108 0.300981  0
0.0749117 0.164087  0
0.0540325 0.104818  0
0.0336937 0.204382  0
0.00506657 0.248209  0
-0.0436693 0.250098  0
-0.152708 0.310566  0
-0.245804 0.205318  0
-0.180324 0.116262  0
-0.0498348 0.383286  0
-0.163885 0.30166  0
-0.35532 0.184561  0
-0.387855 0.151669  0
-0.396471 0.154156  0
-0.404226 0.158628  0
-0.413467 0.176242  0
-0.425234 0.191899  0
-0.44056 0.217359  0
-0.459642 0.225996  0
-0.484687 0.262118  0
-0.544105 0.359429  0
-0.617745 0.379406  0
-0.657073 0.376318  0
-0.658383 0.327401  0
-0.599948 0.151675  0
-0.487198 -0.150466  0
-0.364399 -0.623794  0
-0.272651 -0.90035  0
-0.188259 -0.974739  0
-0.0788294 -0.993054  0
0.0281602 -0.987256  0
0.117671 -0.937472  0
0.183264 -0.854892  0
0.261746 -0.648224  0
0.397501 -0.236054  0
0.555622 0.07225  0
0.64795 0.294229  0
0.65342 0.366423  0
0.594596 0.415525  0
0.547394 0.327442  0
0.411923 0.346535  0
0.200652 0.087818  0
0.0341552 0.0570745  0
-0.0421457 0.107695  0
-0.0278454 0.132914  0
-0.104999 0.140607  0
-0.231444 0.304692  0
-0.280828 0.220897  0
-0.202493 -0.0419199  0
-0.0620788 0.272179  0
-0.0371679 0.232773  0
-0.200875 0.106055  0
-0.360693 0.0783278  0
-0.39952 0.0788929  0
-0.416012 0.0813766  0
-0.431366 0.0906784  0
-0.447572 0.0992756  0
-0.459487 0.113016  0
-0.485003 0.118203  0
-0.56859 0.138377  0
-0.585963 0.406438  0
-0.545145 0.408666  0
-0.551714 0.393758  0
-0.55639 0.31675  0
-0.554498 0.102799  0
-0.254521 -0.0555706  0
-0.00498255 -0.34156  0
-0.100857 -0.466387  0
-0.129388 -0.513353  0
-0.073791 -0.525258  0
-0.00837081 -0.518392  0
0.03953 -0.488727  0
0.0450843 -0.440251  0
-0.0190364 -0.350547  0
0.186357 -0.16076  0
0.440254 -0.00258296  0
0.447716 0.270078  0
0.455177 0.378445  0
0.568928 0.420587  0
0.615037 0.163721  0
0.273697 0.163721  0
0 0  0
0 0  0
0 0  0
0 0  0
0 0  0
-0.140414 0.110448  0
-0.212113 0.0505229  0
-0.143398 -0.119851  0
-0.0716991 0.139209  0
0 0  0
0 0  0
0 0  0
0 0  0
0 0  0
0 0  0
0 0  0
0 0  0
0 0  0
0 0  0
-0.272573 0.204333  0
-0.540976 0.204333  0
-0.50481 0.200163  0
-0.407626 0.157429  0
-0.448468 0.0513993  0
-0.277249 0.0513993  0
0 0  0
0 0  0
0 0  0
0 0  0
0 0  0
0 0  0
0 0  0
0 0  0
0.220127 -0.00129148  0
0.307654 -0.00129148  0
0.257201 0.131308  0
0.397263 0.189223  0
0.227589 0.189223  0
0 0  0
0 0  0
0 0  0
0 0  0
0 0  0
0 0  0
0 0  0
0 0  0
-0.0716991 -0.0599255  0
-0.0716991 -0.0259686  0
0 0.0679138  0
0 0  0
0 0  0
0 0  0
0 0  0
0 0  0
0 0  0
0 0  0
0 0  0
0 0  0
0 0  0
0 0  0
0 0  0
0 0  0
0 0  0
0 0  0
0 0  0
0 0  0
0 0  0
0 0  0
0 0  0
0 0  0
0 0  0
0 0  0
0 0  0
0 0  0
0 0  0
0 0  0
0 0  0
0 0  0
0 0  0
0 0  0
0 0  0
0 0  0
0 0  0
0 0  0
0 0  0
0 0  0
0 0  0
0 0.0339569  0
0 0.0339569  0
0 0  0
0 0  0
0 0  0
0 0  0
0 0  0
0 0  0
0 0  0
0 0  0
0 0  0
0 0  0
0 0  0
0 0  0
0 0  0
0 0  0
0 0  0
0 0  0
0 0  0
0 0  0
0 0  0
0 0  0
0 0  0
0 0  0
0 0  0
0 0  0
0 0  0
0 0  0
0 0  0
0 0  0
0 0  0
0 0  0
0 0  0
0 0  0
0 0  0
0 0  0
0 0  0
0 0  0
0 0  0
0 0  0
0 0  0
0 0  0
0 0  0
0 0  0
0 0  0
0 0  0
0 0  0
0 0  0
0 0  0
0 0  0
0 0  0
0 0  0
0 0  0
0 0  0
0 0  0
0 0  0
0 0  0
0 0  0
0 0  0
0 0  0
0 0  0
0 0  0
0 0  0
0 0  0
0 0  0
0 0  0
0 0  0
0 0  0
0 0  0
0 0  0
0 0  0
0 0  0
0 0  0
0 0  0
0 0  0
0 0  0
0 0  0
0 0  0
0 0  0
0 0  0
0 0  0
0 0  0
0 0  0
0 0  0
0 0  0
0 0  0
0 0  0
0 0  0
0 0  0
0 0  0
0 0  0
0 0  0
0 0  0
0 0  0
0 0  0
0 0  0
0 0  0
0 0  0
0 0  0
0 0  0
0 0  0
0 0  0
0 0  0
0 0  0
0 0  0
0 0  0
0 0  0
0 0  0
0 0  0
0 0  0
0 0  0
0 0  0
0 0  0
0 0  0
0 0  0
0 0  0
0 0  0
0 0  0
0 0  0
0 0  0
0 0  0
0 0  0
0 0  0
0 0  0
0 0  0
0 0  0
0 0  0
0 0  0
0 0  0
0 0  0
0 0  0
0 0  0
0 0  0
0 0  0
0 0  0
0 0  0
0 0  0
0 0  0
0 0  0
0 0  0
0 0  0
0 0  0
0 0  0
0 0  0
0 0  0
0 0  0
0 0  0
0 0  0
0 0  0
0 0  0
0 0  0
0 0  0
0 0  0
0 0  0
0 0  0
0 0  0
0 0  0
0 0  0
0 0  0
0 0  0
0 0  0
0 0  0
0 0  0
0 0  0
0 0  0
0 0  0
0 0  0
0 0  0
0 0  0
0 0  0
0 0  0
0 0  0
0 0  0
0 0  0
0 0  0
0 0  0
0 0  0
0 0  0
0 0  0
0 0  0
0 0  0
0 0  0
0 0  0
0 0  0
0 0  0
0 0  0
0 0  0
0 0  0
0 0  0
0 0  0
0 0  0
0 0  0
0 0  0
0 0  0
0 0  0
0 0  0
0 0  0
0 0  0
0 0  0
0 0  0
0 0  0
0 0  0
0 0  0
0 0  0
0 0  0
0 0  0
0 0  0
0 0  0
0 0  0
0 0  0
0 0  0
0 0  0
0 0  0
0 0  0
0 0  0
0 0  0
0 0  0
0 0  0
0 0  0
0 0  0
0 0  0
0 0  0
0 0  0
0 0  0
0 0  0
0 0  0
0 0  0
0 0  0
0 0  0
0 0  0
0 0  0
0 0  0
0 0  0
0 0  0
0 0  0
0 0  0
0 0  0
0 0  0
0 0  0
0 0  0
0 0  0
0 0  0
0 0  0
0 0  0
0 0  0
0 0  0
0 0  0
0 0  0
0 0  0
0 0  0
0 0  0
0 0  0
0 0  0
0 0  0
0 0  0
0 0  0
0 0  0
0 0  0
0 0  0
0 0  0
0 0  0
0 0  0
0 0  0
0 0  0
0 0  0
0 0  0
0 0  0
0 0  0
0 0  0
0 0  0
0 0  0
0 0  0
0 0  0
0 0  0
0 0  0
0 0  0
0 0  0
0 0  0
0 0  0
0 0  0
0 0  0
0 0  0
0 0  0
0 0  0
0 0  0
0 0  0
0 0  0
0 0  0
0 0  0
0 0  0
0 0  0
0 0  0
0 0  0
0 0  0
0 0  0
0 0  0
0 0  0
0 0  0
0 0  0
0 0  0
0 0  0
0 0  0
0 0  0
0 0  0
0 0  0
0 0  0
0 0  0
0 0  0
0 0  0
0 0  0
0 0  0
0 0  0
0 0  0
0 0  0
0 0  0
0 0  0
0 0  0
0 0  0
0 0  0
0 0  0
0 0  0
0 0  0
0 0  0
0 0  0
0 0  0
0 0  0
0 0  0
0 0  0
0 0  0
0 0  0
0 0  0
0 0  0
0 0  0
0 0  0
0 0  0
0 0  0
0 0  0
0 0  0
0 0  0
0 0  0
0 0  0
0 0  0
0 0  0
0 0  0
0 0  0
0 0  0
0 0  0
0 0  0
0 0  0
0 0  0
0 0  0
0 0  0
0 0  0
0 0  0
0 0  0
0 0  0
0 0  0
0 0  0
0 0  0
0 0  0
0 0  0
0 0  0
0 0  0
0 0  0
0 0  0
0 0  0
0 0  0
0 0  0
0 0  0
0 0  0
0 0  0
0 0  0
0 0  0
0 0  0
0 0  0
0 0  0
0 0  0
0 0  0
0 0  0
0 0  0
0 0  0
0 0  0
0 0  0
0 0  0
0 0  0
0 0  0
0 0  0
0 0  0
0 0  0
0 0  0
0 0  0
0 0  0
0 0  0
0 0  0
0 0  0
0 0  0
0 0  0
0 0  0
0 0  0
0 0  0
0 0  0
0 0  0
0 0  0
0 0  0
0 0  0
0 0  0
0 0  0
0 0  0
0 0  0
0 0  0
0 0  0
0 0  0
0 0  0
0 0  0
0 0  0
0 0  0
0 0  0
0 0  0
0 0  0
0 0  0
0 0  0
0 0  0
0 0  0
0 0  0
0 0  0
0 0  0
0 0  0
0 0  0
0 0  0
0 0  0
0 0  0
0 0  0
0 0  0
0 0  0
0 0  0
0 0  0
0 0  0
0 0  0
0 0  0
0 0  0
0 0  0
0 0  0
0 0  0
0 0  0
0 0  0
0 0  0
0 0  0
0 0  0
0 0  0
0 0  0
0 0  0
0 0  0
0 0  0
0 0  0
0 0  0
0 0  0
0 0  0
0 0  0
0 0  0
0 0  0
0 0  0
0 0  0
0 0  0
0 0  0
0 0  0
0 0  0
0 0  0
0 0  0
0 0  0
0 0  0
0 0  0
0 0  0
0 0  0
0 0  0
0 0  0
0 0  0
0 0  0
0 0  0
0 0  0
0 0  0
0 0  0
0 0  0

SCALARS pressure double 1
LOOKUP_TABLE default
3.64143
3.64157
3.64308
3.64593
3.65007
3.65541
3.66186
3.66928
3.67751
3.68631
3.69542
3.70454
3.71336
3.72155
3.72874
3.73455
3.73856
3.7404
3.73976
3.73655
3.73064
3.72201
3.71085
3.69746
3.68228
3.66581
3.64855
3.63101
3.61368
3.59702
3.58151
3.56753
3.55539
3.54532
3.53752
3.53212
3.52922
3.52881
3.53065
3.53336
3.43261
3.43273
3.43422
3.43707
3.44123
3.44664
3.45321
3.46076
3.46913
3.47808
3.48736
3.4967
3.5058
3.51431
3.52181
3.52788
3.53208
3.53405
3.53348
3.5303
3.52434
3.51561
3.50428
3.49069
3.47527
3.45847
3.44078
3.42277
3.40499
3.38795
3.3721
3.35781
3.34538
3.33512
3.3272
3.32174
3.31879
3.31834
3.32016
3.3229
3.21615
3.21624
3.21774
3.22064
3.22494
3.23052
3.23728
3.24511
3.2538
3.26314
3.27289
3.28283
3.2926
3.30176
3.30985
3.31644
3.3211
3.32343
3.32308
3.31995
3.31395
3.30503
3.29339
3.27934
3.26324
3.2456
3.22705
3.20816
3.1895
3.17161
3.15495
3.13997
3.12703
3.11641
3.10824
3.10261
3.09955
3.09901
3.10072
3.10333
2.99201
2.99208
2.99362
2.99665
3.00106
3.00685
3.01395
3.02217
3.03136
3.04138
3.05202
3.0629
3.07364
3.08377
3.09285
3.10037
3.10583
3.10872
3.10868
3.10564
3.09956
3.09034
3.07815
3.06321
3.04604
3.02723
3.00735
2.98705
2.967
2.9477
2.92982
2.91383
2.90013
2.88896
2.88046
2.87465
2.87149
2.87088
2.87248
2.87496
2.76014
2.76019
2.7618
2.76484
2.76944
2.77553
2.78298
2.79174
2.80174
2.81278
2.82453
2.83668
2.84884
2.86047
2.871
2.87981
2.88624
2.88982
2.89019
2.8872
2.88106
2.87143
2.85838
2.84236
2.82381
2.80333
2.7816
2.75931
2.73715
2.71601
2.69648
2.67917
2.66446
2.65258
2.64368
2.63773
2.6346
2.63403
2.63563
2.63804
2.52049
2.52054
2.52205
2.52522
2.52997
2.53628
2.5442
2.5537
2.56468
2.57696
2.59025
2.60418
2.61826
2.63183
2.64414
2.65443
2.66209
2.66655
2.66737
2.66451
2.65819
2.64797
2.63404
2.61662
2.59623
2.57355
2.54932
2.52441
2.49982
2.47629
2.45466
2.43556
2.41951
2.40687
2.39768
2.39176
2.38879
2.38848
2.39029
2.3928
2.27304
2.27295
2.27446
2.27756
2.28237
2.28894
2.29736
2.3077
2.3199
2.33376
2.34901
2.36519
2.38158
2.3974
2.41174
2.42388
2.433
2.43841
2.43972
2.43663
2.43014
2.41939
2.40434
2.38522
2.36258
2.33724
2.31018
2.28229
2.25449
2.22791
2.20352
2.18222
2.16478
2.1514
2.14207
2.13644
2.13409
2.13446
2.13688
2.13974
2.01774
2.01751
2.01878
2.02171
2.02643
2.03315
2.04214
2.0534
2.06694
2.08275
2.10045
2.11922
2.1382
2.15659
2.17333
2.18741
2.19799
2.20428
2.20566
2.20233
2.19559
2.1843
2.16821
2.1473
2.12229
2.09423
2.06392
2.03235
2.00075
1.97037
1.94254
1.91868
1.89952
1.88548
1.87635
1.87169
1.87066
1.87238
1.87595
1.87957
1.75465
1.75414
1.75502
1.75757
1.76205
1.76894
1.77826
1.79037
1.80549
1.82359
1.84403
1.86583
1.88773
1.90858
1.92742
1.94332
1.95548
1.96265
1.96404
1.96006
1.95303
1.94159
1.92483
1.90243
1.87521
1.84425
1.81054
1.77501
1.73906
1.70392
1.67163
1.64421
1.62309
1.60858
1.60048
1.59764
1.59882
1.60278
1.60843
1.61355
1.4841
1.48317
1.4834
1.48526
1.48939
1.49597
1.50549
1.51838
1.53517
1.55556
1.57903
1.60422
1.62896
1.6516
1.67221
1.68994
1.70378
1.7116
1.71179
1.70625
1.69879
1.68763
1.67133
1.64795
1.61904
1.58624
1.54997
1.51112
1.4698
1.42812
1.38943
1.35751
1.33421
1.31989
1.31339
1.31348
1.31855
1.32677
1.3364
1.34444
1.20683
1.20508
1.20413
1.205
1.20821
1.2142
1.2235
1.23692
1.25452
1.27697
1.30401
1.33333
1.36107
1.38515
1.40565
1.42312
1.43699
1.44413
1.44138
1.43336
1.4254
1.41518
1.40016
1.37709
1.34875
1.31755
1.28194
1.24036
1.19259
1.1419
1.0937
1.05585
1.03057
1.01689
1.01337
1.01818
1.03005
1.04664
1.06407
1.07745
0.924151
0.920469
0.917426
0.916633
0.918502
0.923434
0.931969
0.944433
0.961938
0.985992
1.01721
1.05287
1.08513
1.10862
1.12187
1.13115
1.14074
1.1464
1.14107
1.13082
1.12233
1.11268
1.09807
1.07609
1.05368
1.03298
1.00557
0.963566
0.908012
0.844499
0.780222
0.735412
0.709204
0.697649
0.698186
0.709204
0.731788
0.765972
0.799602
0.821965
0.638603
0.629719
0.622987
0.620009
0.620254
0.623628
0.630143
0.640443
0.655694
0.679159
0.715458
0.764074
0.802278
0.820354
0.81423
0.794425
0.792884
0.79994
0.797688
0.787883
0.779576
0.769186
0.750431
0.727429
0.717925
0.729383
0.722214
0.683935
0.61865
0.537547
0.437532
0.388668
0.366903
0.359464
0.364228
0.379502
0.413989
0.492356
0.554397
0.588392
0.357301
0.331571
0.319402
0.314873
0.313686
0.315187
0.31874
0.325471
0.334751
0.351418
0.38915
0.468956
0.515572
0.523619
0.482326
0.397195
0.382353
0.399215
0.405084
0.399937
0.394293
0.385659
0.36581
0.336902
0.338547
0.414201
0.440503
0.408645
0.326725
0.234568
0.0304552
0.00508489
0.00457687
0.00549929
0.00865047
0.0150217
0.0374418
0.234063
0.33946
0.385749
0.0839959
0.0129168
0.00228581
0.00179585
0.00206209
0.00257003
0.00333153
0.004342
0.00517207
0.00687073
0.0207921
0.192844
0.238649
0.236112
0.169244
-0.0317055
-0.0303502
-0.0172414
-0.0270555
-0.0294209
-0.0254236
-0.0205047
-0.0130896
-0.0273284
-0.0420313
0.139687
0.181447
0.151351
0.0223841
0.0281739
0
0
0
0
0
0
0
0.0425487
0.150354
0.213952
0
0
0
0
0
0
0
0
0
0
0
0.0418385
0.00294846
-0.000407835
-0.0193694
0
0
0
0
0
0
0
0
0
0
0.0177918
-0.00329223
-0.0122405
0
0
0
0
0
0
0
0
0
0
-0.0140824
0.079529
0
0
0
0
0
0
0
0
0
0
0
0
0
0
0
0
0
0
0
0
0
0
0
0
0
0
0
0
0
0
0
0
0
0
0
0
0
0
0
2.94513e-06
0
0
0
0
0
0
0
0
0
0
0
0
0
0
0
0
0
0
0
0
0
0
0
0
0
0
0
0
0
0
0
0
0
0
0
0
0
0
0
0
0
0
0
0
0
0
0
0
0
0
0
0
0
0
0
0
0
0
0
0
0
0
0
0
0
0
0
0
0
0
0
0
0
0
0
0
0
0
0
0
0
0
0
0
0
0
0
0
0
0
0
0
0
0
0
0
0
0
0
0
0
0
0
0
0
0
0
0
0
0
0
0
0
0
0
0
0
0
0
0
0
0
0
0
0
0
0
0
0
0
0
0
0
0
0
0
0
0
0
0
0
0
0
0
0
0
0
0
0
0
0
0
0
0
0
0
0
0
0
0
0
0
0
0
0
0
0
0
0
0
0
0
0
0
0
0
0
0
0
0
0
0
0
0
0
0
0
0
0
0
0
0
0
0
0
0
0
0
0
0
0
0
0
0
0
0
0
0
0
0
0
0
0
0
0
0
0
0
0
0
0
0
0
0
0
0
0
0
0
0
0
0
0
0
0
0
0
0
0
0
0
0
0
0
0
0
0
0
0
0
0
0
0
0
0
0
0
0
0
0
0
0
0
0
0
0
0
0
0
0
0
0
0
0
0
0
0
0
0
0
0
0
0
0
0
0
0
0
0
0
0
0
0
0
0
0
0
0
0
0
0
0
0
0
0
0
0
0
0
0
0
0
0
0
0
0
0
0
0
0
0
0
0
0
0
0
0
0
0
0
0
0
0
0
0
0
0
0
0
0
0
0
0
0
0
0
0
0
0
0
0
0
0
0
0
0
0
0
0
0
0
0
0
0
0
0
0
0
0
0
0
0
0
0
0
0
0
0
0
0
0
0
0
0
0
0
0
0
0
0
0
0
0
0
0
0
0
0
0
0
0
0
0
0
0
0
0
0
0
0
0
0
0
0
0
0
0
0
0
0
0
0
0
0
0
0
0
0
0
0
0
0
0
0
0
0
0
0
0
0
0
0
0
0
0
0
0
0
0
0
0
0
0
0
0
0
0
0
0
0
0
0
0
0
0
0
0
0
0
0
0
0
0
0
0
0
0
0
0
0
0
0
0
0
0
0
0
0
0
0
0
0
0
0
0
0
0
0
0
0
0
0
0
0
0
0
0
0
0
0
0
0
0
0
0
0
0
0
0
0
SCALARS rhs double 1
LOOKUP_TABLE default
-5.22928
-5.18941
-5.18801
-5.18725
-5.18681
-5.18645
-5.18605
-5.18573
-5.1854
-5.18503
-5.18497
-5.18515
-5.18592
-5.18751
-5.18971
-5.19305
-5.1966
-5.19968
-5.19918
-5.20231
-5.2033
-5.20168
-5.19888
-5.19509
-5.19142
-5.18796
-5.18553
-5.18404
-5.18338
-5.18333
-5.18369
-5.18424
-5.18481
-5.18532
-5.18575
-5.18621
-5.18757
-5.19514
-5.22926
-5.31849
-0.189919
-0.153139
-0.152302
-0.15193
-0.151462
-0.15097
-0.150553
-0.150053
-0.14943
-0.149083
-0.148778
-0.149059
-0.149807
-0.150961
-0.153331
-0.155559
-0.158162
-0.160827
-0.159484
-0.16211
-0.163367
-0.161876
-0.159126
-0.155938
-0.152518
-0.149921
-0.147831
-0.14661
-0.146152
-0.146207
-0.146806
-0.147606
-0.148337
-0.148834
-0.149059
-0.149261
-0.150326
-0.157688
-0.194209
-0.289595
-0.187575
-0.151835
-0.151393
-0.151052
-0.15082
-0.150689
-0.150469
-0.149983
-0.149617
-0.149334
-0.149098
-0.149388
-0.150135
-0.151103
-0.151749
-0.153433
-0.155917
-0.159138
-0.15914
-0.162128
-0.165143
-0.164226
-0.162092
-0.159143
-0.155843
-0.152757
-0.150442
-0.148862
-0.148362
-0.148508
-0.149134
-0.149319
-0.148976
-0.148446
-0.14837
-0.148723
-0.149651
-0.15572
-0.188738
-0.276729
-0.185267
-0.151207
-0.151065
-0.151046
-0.150794
-0.150423
-0.149782
-0.149419
-0.149632
-0.149668
-0.14986
-0.149272
-0.148656
-0.147623
-0.149112
-0.15336
-0.159961
-0.166487
-0.168015
-0.169238
-0.172596
-0.170835
-0.167128
-0.162438
-0.157858
-0.153914
-0.151332
-0.151294
-0.151428
-0.150314
-0.14826
-0.146474
-0.146014
-0.147235
-0.147911
-0.147451
-0.147041
-0.152335
-0.183766
-0.265755
-0.183411
-0.150745
-0.150072
-0.149606
-0.149417
-0.149314
-0.149616
-0.151271
-0.15134
-0.150407
-0.147658
-0.144956
-0.145302
-0.148988
-0.156738
-0.165874
-0.173384
-0.177972
-0.177447
-0.174155
-0.181661
-0.179617
-0.17567
-0.170627
-0.165972
-0.162986
-0.162292
-0.157492
-0.149586
-0.144858
-0.144369
-0.146018
-0.148577
-0.146891
-0.144783
-0.144639
-0.146657
-0.151857
-0.180421
-0.256757
-0.180708
-0.148891
-0.148732
-0.148881
-0.148964
-0.1496
-0.152628
-0.150706
-0.148285
-0.1467
-0.14554
-0.145311
-0.152371
-0.163458
-0.172783
-0.17956
-0.184847
-0.190443
-0.193465
-0.188869
-0.20074
-0.197526
-0.193088
-0.187952
-0.182241
-0.176144
-0.161464
-0.151141
-0.148579
-0.15008
-0.149608
-0.149719
-0.143624
-0.143867
-0.146045
-0.147561
-0.145524
-0.148511
-0.175766
-0.249001
-0.176806
-0.147929
-0.147405
-0.147483
-0.148932
-0.153075
-0.147351
-0.147209
-0.149389
-0.146949
-0.146693
-0.156107
-0.168651
-0.179612
-0.186489
-0.195599
-0.207427
-0.219976
-0.23037
-0.212175
-0.233701
-0.233371
-0.226638
-0.216076
-0.201637
-0.17859
-0.17039
-0.165473
-0.156896
-0.152575
-0.152167
-0.144019
-0.148481
-0.147235
-0.146645
-0.144212
-0.142375
-0.143404
-0.168836
-0.240796
-0.172457
-0.145768
-0.146121
-0.147821
-0.151603
-0.142681
-0.149397
-0.150726
-0.145214
-0.148638
-0.163667
-0.173651
-0.176785
-0.194775
-0.212573
-0.23375
-0.257542
-0.277884
-0.28619
-0.26356
-0.294625
-0.29086
-0.283872
-0.260094
-0.229642
-0.214759
-0.194986
-0.173216
-0.166835
-0.161574
-0.148994
-0.153106
-0.146253
-0.148598
-0.146786
-0.143269
-0.137724
-0.133627
-0.154964
-0.22816
-0.166777
-0.144492
-0.145476
-0.148549
-0.140289
-0.151277
-0.146921
-0.144787
-0.152214
-0.166369
-0.172992
-0.182576
-0.19692
-0.22684
-0.266241
-0.307986
-0.350712
-0.382516
-0.398431
-0.356626
-0.390678
-0.403895
-0.385836
-0.351085
-0.311467
-0.266824
-0.230504
-0.194304
-0.181342
-0.165208
-0.162332
-0.151054
-0.152636
-0.147662
-0.146388
-0.144173
-0.132488
-0.112319
-0.121472
-0.201376
-0.160899
-0.142949
-0.144996
-0.139983
-0.147886
-0.143365
-0.146526
-0.151125
-0.162723
-0.171231
-0.185991
-0.20609
-0.234928
-0.267677
-0.365004
-0.450238
-0.536769
-0.60034
-0.584375
-0.513056
-0.562844
-0.581208
-0.608552
-0.54516
-0.452143
-0.363654
-0.267672
-0.237563
-0.206145
-0.185236
-0.168154
-0.158615
-0.149445
-0.150553
-0.15163
-0.148949
-0.125872
-0.0677871
-0.0462817
-0.145168
-0.154455
-0.141501
-0.139755
-0.141963
-0.142595
-0.144326
-0.147201
-0.15763
-0.167199
-0.182099
-0.206798
-0.244647
-0.298544
-0.365442
-0.519958
-0.718985
-0.897999
-0.990734
-0.872509
-0.737656
-0.791114
-0.87046
-0.979459
-0.886136
-0.703706
-0.517749
-0.36179
-0.300254
-0.249351
-0.214007
-0.185441
-0.161158
-0.147191
-0.151821
-0.167361
-0.16673
-0.127318
0.0101798
0.0971559
-0.045054
-0.147479
-0.138575
-0.137722
-0.140181
-0.139671
-0.143688
-0.150318
-0.159127
-0.170509
-0.197777
-0.243993
-0.309768
-0.408412
-0.552396
-0.6952
-1.10906
-1.3846
-1.49109
-1.20176
-0.961856
-1.02566
-1.15233
-1.3228
-1.21699
-0.97871
-0.644213
-0.532186
-0.405498
-0.323332
-0.26229
-0.248349
-0.192764
-0.157238
-0.171599
-0.210405
-0.230729
-0.198546
0.162833
0.200677
-0.0110811
-0.107455
-0.133776
-0.136849
-0.13502
-0.134411
-0.136738
-0.142989
-0.149513
-0.154867
-0.195124
-0.316291
-0.429987
-0.600464